
     Program PWSCF v.6.3 starts on 21Nov2020 at 15: 2:39 

     This program is part of the open-source Quantum ESPRESSO suite
     for quantum simulation of materials; please cite
         "P. Giannozzi et al., J. Phys.:Condens. Matter 21 395502 (2009);
         "P. Giannozzi et al., J. Phys.:Condens. Matter 29 465901 (2017);
          URL http://www.quantum-espresso.org", 
     in publications or presentations arising from this work. More details at
     http://www.quantum-espresso.org/quote

     Parallel version (MPI), running on    12 processors

     MPI processes distributed on     2 nodes
     R & G space division:  proc/nbgrp/npool/nimage =      12
     Waiting for input...
     Reading input from standard input
     Message from routine read_cards :
     DEPRECATED: no units specified in CELL_PARAMETERS card

     Current dimensions of program PWSCF are:
     Max number of different atomic species (ntypx) = 10
     Max number of k-points (npk) =  40000
     Max angular momentum in pseudopotentials (lmaxx) =  3

     IMPORTANT: XC functional enforced from input :
     Exchange-correlation      = PBE ( 1  4  3  4 0 0)
     Any further DFT definition will be discarded
     Please, verify this is what you really want

               file N.pbe-n-kjpaw_psl.1.0.0.UPF: wavefunction(s)  2S renormalized

     Subspace diagonalization in iterative solution of the eigenvalue problem:
     one sub-group per band group will be used
     scalapack distributed-memory algorithm (size of sub-group:  2*  2 procs)

     Found symmetry operation: I + ( -0.5000  0.0000  0.0000)
     This is a supercell, fractional translations are disabled
 
     Parallelization info
     --------------------
     sticks:   dense  smooth     PW     G-vecs:    dense   smooth      PW
     Min         206     206     56                10176    10176    1454
     Max         207     207     57                10179    10179    1459
     Sum        2479    2479    673               122133   122133   17463
 


     bravais-lattice index     =            0
     lattice parameter (alat)  =       9.4603  a.u.
     unit-cell volume          =     905.0715 (a.u.)^3
     number of atoms/cell      =           16
     number of atomic types    =            2
     number of electrons       =        64.00
     number of Kohn-Sham states=          120
     kinetic-energy cutoff     =     100.0000  Ry
     charge density cutoff     =     400.0000  Ry
     convergence threshold     =      1.0E-07
     mixing beta               =       0.1000
     number of iterations used =            8  plain     mixing
     Exchange-correlation      = PBE ( 1  4  3  4 0 0)
     nstep                     =           50


     celldm(1)=   9.460347  celldm(2)=   0.000000  celldm(3)=   0.000000
     celldm(4)=   0.000000  celldm(5)=   0.000000  celldm(6)=   0.000000

     crystal axes: (cart. coord. in units of alat)
               a(1) = (   1.000000   0.000000   0.000000 )  
               a(2) = (  -0.500000   0.866025   0.000000 )  
               a(3) = (   0.000000   0.000000   1.234329 )  

     reciprocal axes: (cart. coord. in units 2 pi/alat)
               b(1) = (  1.000000  0.577350  0.000000 )  
               b(2) = (  0.000000  1.154701  0.000000 )  
               b(3) = (  0.000000  0.000000  0.810156 )  


     PseudoPot. # 1 for B  read from file:
     /home/hanghu/Simulaiton/QE/pseudo/B.pbe-n-kjpaw_psl.1.0.0.UPF
     MD5 check sum: 8c825a5969375aca5c2c6ad5945b3059
     Pseudo is Projector augmented-wave + core cor, Zval =  3.0
     Generated using "atomic" code by A. Dal Corso v.6.3
     Shape of augmentation charge: PSQ
     Using radial grid of 1059 points,  4 beta functions with: 
                l(1) =   0
                l(2) =   0
                l(3) =   1
                l(4) =   1
     Q(r) pseudized with 0 coefficients 


     PseudoPot. # 2 for N  read from file:
     /home/hanghu/Simulaiton/QE/pseudo/N.pbe-n-kjpaw_psl.1.0.0.UPF
     MD5 check sum: 14c48229446f9f2d411169a3abcbc3fa
     Pseudo is Projector augmented-wave + core cor, Zval =  5.0
     Generated using "atomic" code by A. Dal Corso v.6.3
     Shape of augmentation charge: PSQ
     Using radial grid of 1085 points,  4 beta functions with: 
                l(1) =   0
                l(2) =   0
                l(3) =   1
                l(4) =   1
     Q(r) pseudized with 0 coefficients 


     atomic species   valence    mass     pseudopotential
        B              3.00    10.81000     B ( 1.00)
        N              5.00    14.00700     N ( 1.00)

      4 Sym. Ops., with inversion, found



   Cartesian axes

     site n.     atom                  positions (alat units)
         1           B   tau(   1) = (   0.0000050   0.2886722   0.3085824  )
         2           B   tau(   2) = (   0.2499950   0.1443405   0.9257471  )
         3           N   tau(   3) = (   0.0000050   0.2886722   0.9257471  )
         4           N   tau(   4) = (   0.2499950   0.1443405   0.3085824  )
         5           B   tau(   5) = (   0.5000050   0.2886722   0.3085824  )
         6           B   tau(   6) = (   0.7499950   0.1443405   0.9257471  )
         7           N   tau(   7) = (   0.5000050   0.2886722   0.9257471  )
         8           N   tau(   8) = (   0.7499950   0.1443405   0.3085824  )
         9           B   tau(   9) = (  -0.2499950   0.7216849   0.3085824  )
        10           B   tau(  10) = (  -0.0000050   0.5773532   0.9257471  )
        11           N   tau(  11) = (  -0.2499950   0.7216849   0.9257471  )
        12           N   tau(  12) = (  -0.0000050   0.5773532   0.3085824  )
        13           B   tau(  13) = (   0.2500050   0.7216849   0.3085824  )
        14           B   tau(  14) = (   0.4999950   0.5773532   0.9257471  )
        15           N   tau(  15) = (   0.2500050   0.7216849   0.9257471  )
        16           N   tau(  16) = (   0.4999950   0.5773532   0.3085824  )

     number of k points=    34
                       cart. coord. in units 2pi/alat
        k(    1) = (   0.0000000   0.0000000   0.0000000), wk =   0.0185185
        k(    2) = (   0.0000000   0.0000000   0.2700522), wk =   0.0370370
        k(    3) = (   0.0000000   0.1924501   0.0000000), wk =   0.0740741
        k(    4) = (   0.0000000   0.1924501   0.2700522), wk =   0.0740741
        k(    5) = (   0.0000000   0.3849002   0.0000000), wk =   0.0740741
        k(    6) = (   0.0000000   0.3849002   0.2700522), wk =   0.0740741
        k(    7) = (   0.0000000  -0.5773503   0.0000000), wk =   0.0370370
        k(    8) = (   0.0000000  -0.5773503   0.2700522), wk =   0.0740741
        k(    9) = (   0.1666667   0.2886751   0.0000000), wk =   0.0370370
        k(   10) = (   0.1666667   0.2886751   0.2700522), wk =   0.0740741
        k(   11) = (   0.1666667   0.4811252   0.0000000), wk =   0.0740741
        k(   12) = (   0.1666667   0.4811252   0.2700522), wk =   0.0740741
        k(   13) = (   0.3333333   0.5773503   0.0000000), wk =   0.0370370
        k(   14) = (   0.3333333   0.5773503   0.2700522), wk =   0.0740741
        k(   15) = (  -0.1666667   0.0962250   0.0000000), wk =   0.0370370
        k(   16) = (  -0.1666667   0.0962250   0.2700522), wk =   0.0370370
        k(   17) = (   0.1666667   0.0962250   0.2700522), wk =   0.0740741
        k(   18) = (   0.1666667  -0.0962250   0.2700522), wk =   0.0370370
        k(   19) = (  -0.3333333   0.1924501   0.0000000), wk =   0.0370370
        k(   20) = (  -0.3333333   0.1924501   0.2700522), wk =   0.0370370
        k(   21) = (   0.3333333   0.1924501   0.2700522), wk =   0.0740741
        k(   22) = (   0.3333333  -0.1924501   0.2700522), wk =   0.0370370
        k(   23) = (   0.5000000  -0.2886751   0.0000000), wk =   0.0185185
        k(   24) = (   0.5000000  -0.2886751   0.2700522), wk =   0.0370370
        k(   25) = (  -0.1666667   0.2886751   0.0000000), wk =   0.0740741
        k(   26) = (  -0.1666667   0.2886751   0.2700522), wk =   0.0740741
        k(   27) = (   0.3333333  -0.0000000   0.2700522), wk =   0.0740741
        k(   28) = (  -0.3333333   0.3849002   0.0000000), wk =   0.0740741
        k(   29) = (   0.5000000   0.0962250   0.0000000), wk =   0.0740741
        k(   30) = (  -0.3333333   0.3849002   0.2700522), wk =   0.0740741
        k(   31) = (   0.5000000   0.0962250   0.2700522), wk =   0.0740741
        k(   32) = (  -0.5000000  -0.0962250   0.2700522), wk =   0.0740741
        k(   33) = (   0.3333333  -0.3849002   0.2700522), wk =   0.0740741
        k(   34) = (  -0.3333333  -0.3849002  -0.2700522), wk =   0.0740741

     Dense  grid:   122133 G-vectors     FFT dimensions: (  64,  64,  75)

     Estimated max dynamical RAM per process >     124.18 MB

     Estimated total dynamical RAM >       1.46 GB

     Check: negative/imaginary core charge=   -0.000003    0.000000

     Initial potential from superposition of free atoms

     starting charge   63.99768, renormalised to   64.00000
     Starting wfcs are   64 randomized atomic wfcs +   56 random wfcs
     Checking if some PAW data can be deallocated... 

     total cpu time spent up to now is       10.3 secs

     Self-consistent Calculation

     iteration #  1     ecut=   100.00 Ry     beta= 0.10
     Davidson diagonalization with overlap
     ethr =  1.00E-02,  avg # of iterations =  6.1

     total cpu time spent up to now is       69.8 secs

     total energy              =    -319.45858722 Ry
     Harris-Foulkes estimate   =    -319.87402417 Ry
     estimated scf accuracy    <       2.98845543 Ry

     iteration #  2     ecut=   100.00 Ry     beta= 0.10
     Davidson diagonalization with overlap
     ethr =  4.67E-03,  avg # of iterations =  1.0

     total cpu time spent up to now is       90.2 secs

     total energy              =    -318.64633485 Ry
     Harris-Foulkes estimate   =    -319.48784886 Ry
     estimated scf accuracy    <       1.83344113 Ry

     iteration #  3     ecut=   100.00 Ry     beta= 0.10
     Davidson diagonalization with overlap
     ethr =  2.86E-03,  avg # of iterations =  1.1

     total cpu time spent up to now is      111.5 secs

     total energy              =    -318.87161594 Ry
     Harris-Foulkes estimate   =    -318.93209040 Ry
     estimated scf accuracy    <       0.17428715 Ry

     iteration #  4     ecut=   100.00 Ry     beta= 0.10
     Davidson diagonalization with overlap
     ethr =  2.72E-04,  avg # of iterations =  3.7

     total cpu time spent up to now is      136.2 secs

     total energy              =    -318.88824966 Ry
     Harris-Foulkes estimate   =    -318.88796169 Ry
     estimated scf accuracy    <       0.00696760 Ry

     iteration #  5     ecut=   100.00 Ry     beta= 0.10
     Davidson diagonalization with overlap
     ethr =  1.09E-05,  avg # of iterations =  5.6

     negative rho (up, down):  1.085E-04 0.000E+00

     total cpu time spent up to now is      167.5 secs

     total energy              =    -318.88872847 Ry
     Harris-Foulkes estimate   =    -318.88848256 Ry
     estimated scf accuracy    <       0.00353720 Ry

     iteration #  6     ecut=   100.00 Ry     beta= 0.10
     Davidson diagonalization with overlap
     ethr =  5.53E-06,  avg # of iterations =  1.0

     negative rho (up, down):  1.480E-04 0.000E+00

     total cpu time spent up to now is      188.1 secs

     total energy              =    -318.88892343 Ry
     Harris-Foulkes estimate   =    -318.88898319 Ry
     estimated scf accuracy    <       0.00015615 Ry

     iteration #  7     ecut=   100.00 Ry     beta= 0.10
     Davidson diagonalization with overlap
     ethr =  2.44E-07,  avg # of iterations =  1.0

     negative rho (up, down):  1.472E-04 0.000E+00

     total cpu time spent up to now is      208.8 secs

     total energy              =    -318.88895034 Ry
     Harris-Foulkes estimate   =    -318.88894702 Ry
     estimated scf accuracy    <       0.00000294 Ry

     iteration #  8     ecut=   100.00 Ry     beta= 0.10
     Davidson diagonalization with overlap
     ethr =  4.59E-09,  avg # of iterations =  2.0

     negative rho (up, down):  1.500E-04 0.000E+00

     total cpu time spent up to now is      231.5 secs

     total energy              =    -318.88894971 Ry
     Harris-Foulkes estimate   =    -318.88895160 Ry
     estimated scf accuracy    <       0.00000438 Ry

     iteration #  9     ecut=   100.00 Ry     beta= 0.10
     Davidson diagonalization with overlap
     ethr =  4.59E-09,  avg # of iterations =  2.0

     negative rho (up, down):  1.501E-04 0.000E+00

     total cpu time spent up to now is      253.9 secs

     total energy              =    -318.88895081 Ry
     Harris-Foulkes estimate   =    -318.88895085 Ry
     estimated scf accuracy    <       0.00000042 Ry

     iteration # 10     ecut=   100.00 Ry     beta= 0.10
     Davidson diagonalization with overlap
     ethr =  6.61E-10,  avg # of iterations =  1.0

     negative rho (up, down):  1.501E-04 0.000E+00

     total cpu time spent up to now is      274.3 secs

     End of self-consistent calculation

          k = 0.0000 0.0000 0.0000 ( 15205 PWs)   bands (ev):

   -12.3882 -11.8898  -9.1093  -9.1092  -9.1092  -8.9832  -8.9831  -8.9831
    -3.4076  -3.4075  -3.4075  -3.2986  -3.2984  -3.2984  -1.0546   1.3501
     1.3501   1.3506   1.4748   1.4748   1.4754   1.9113   3.8145   3.8145
     3.8150   4.1921   4.1934   4.2669   4.2683   5.2656   5.2656   5.2657
     9.7317   9.7320   9.7320  11.3279  11.5612  11.5622  11.5622  15.2072
    15.2072  15.2074  15.4662  15.4662  15.4663  16.6660  17.1091  17.1109
    17.3274  17.3293  18.0866  18.5832  18.6411  18.6414  18.6414  19.7840
    19.7840  19.7841  20.8372  21.0690  21.0690  21.0693  23.6093  25.9624
    25.9624  25.9628  26.9267  26.9267  26.9267  27.2484  27.2493  27.2493
    27.4056  27.4056  27.4057  27.5380  27.5390  27.5390  27.9284  27.9284
    27.9297  29.6564  29.6564  29.6570  30.6224  30.6533  32.0748  32.9054
    32.9054  32.9055  33.5324  33.5329  33.5415  33.5415  33.5419  34.2653
    34.2653  34.2655  34.5018  34.5027  34.5027  34.9808  34.9812  34.9812
    36.4593  36.4597  36.9152  37.3640  37.3645  37.3645  37.9748  38.8357
    38.8363  40.2329  40.2329  40.2337  41.0197  41.0199  42.5780  42.5781

          k = 0.0000 0.0000 0.2701 ( 15325 PWs)   bands (ev):

   -12.2728 -12.0244  -9.0771  -9.0770  -9.0770  -9.0140  -9.0139  -9.0138
    -3.3941  -3.3940  -3.3940  -3.3394  -3.3392  -3.3392  -0.4382   1.0015
     1.3809   1.3809   1.3814   1.4432   1.4432   1.4438   4.2101   4.2101
     4.2105   4.2107   4.2120   4.2481   4.2494   4.9589   4.9589   4.9592
     9.8917   9.8922   9.8922  10.8121  10.8129  10.8129  12.7545  15.3497
    15.4829  15.4829  15.4830  15.5394  15.5394  15.5396  17.1618  17.1636
    17.2709  17.2727  18.3169  18.5122  19.2888  19.2889  19.2889  19.6354
    19.6354  19.6355  21.2277  22.2795  22.2795  22.2797  22.4388  24.6931
    24.6931  24.6933  26.6174  26.6174  26.6181  26.8802  26.8802  26.8803
    27.1209  27.1214  27.1214  27.2229  27.2237  27.2237  28.0916  28.0920
    28.0920  30.1444  30.1444  30.1445  30.7457  30.9502  31.0869  31.0869
    31.0880  32.5748  32.5748  32.5759  33.2556  34.2532  34.2536  34.6459
    34.6471  34.6471  34.8274  34.8285  34.8285  35.7036  36.3346  36.3350
    37.2373  37.2377  37.9252  37.9252  37.9255  38.6401  38.6403  38.6403
    39.4277  39.4281  40.1975  41.2431  41.2431  41.2432  41.6073  41.6073

          k = 0.0000 0.1925 0.0000 ( 15258 PWs)   bands (ev):

   -12.2507 -11.7595  -9.5379  -9.2874  -9.1618  -9.1617  -8.9932  -8.9930
    -3.1848  -3.1847  -3.0576  -3.0574  -2.8362  -2.6865  -0.8664   0.9910
     0.9914   1.1234   1.1239   1.4941   1.6172   2.0749   3.0777   3.6306
     3.7055   3.7155   3.7158   3.9282   4.0106   5.0260   5.2875   5.2876
     9.9953   9.9956  10.4729  11.5793  11.6782  11.6790  12.1984  14.9115
    15.5435  15.6239  15.6241  16.0704  16.0706  16.4933  16.9587  17.2564
    17.7078  17.9127  17.9202  18.0484  18.5011  18.5013  18.5632  20.0637
    20.0640  20.2369  20.2370  20.7396  21.2104  21.3000  23.3760  25.7906
    25.7911  26.0469  26.0469  26.0915  26.3244  26.5620  26.7868  26.9365
    26.9369  27.1445  27.4327  27.4333  27.7186  27.7187  27.8402  28.4195
    28.4198  28.6418  28.6419  29.7069  30.9543  31.0668  31.8189  32.0700
    32.0700  32.1615  32.1836  33.1179  33.4282  33.4285  33.4549  34.4625
    34.7174  34.8152  34.8155  35.0395  35.0406  35.2716  35.4253  35.7177
    35.7180  36.3854  37.7181  37.8315  38.2474  38.2977  38.2981  38.5558
    38.8829  39.3583  39.6965  40.4823  40.4829  41.4577  41.8107  41.8109

          k = 0.0000 0.1925 0.2701 ( 15268 PWs)   bands (ev):

   -12.1368 -11.8920  -9.4769  -9.3517  -9.1197  -9.1196  -9.0353  -9.0352
    -3.1657  -3.1655  -3.1017  -3.1015  -2.8112  -2.7357  -0.2557   1.0215
     1.0220   1.0880   1.0885   1.1708   1.5245   1.5860   3.5481   3.6531
     3.6939   3.9486   3.9898   4.1318   4.1321   4.5275   4.9365   4.9367
    10.1416  10.1420  10.6598  10.9928  10.9935  11.5261  12.9618  15.3943
    15.4248  15.6038  16.0177  16.0178  16.1356  16.1358  17.0567  17.2027
    17.7588  17.8649  18.1660  18.4189  18.5477  18.9649  18.9650  19.5050
    19.5051  19.8793  21.5330  21.9104  21.9107  22.4182  22.6805  24.5507
    24.5510  24.8188  25.4818  25.4819  26.0750  26.0751  26.3330  26.4032
    26.4362  26.6738  27.1629  27.1637  27.3208  27.3216  28.0526  28.6435
    28.6437  29.5186  29.5191  30.2844  30.9522  30.9726  31.1780  32.4303
    32.4311  32.4479  32.7963  32.9305  33.0731  33.0739  33.1833  34.4371
    34.4379  34.7746  34.8475  34.9149  34.9157  35.0859  35.0934  36.2238
    36.7065  36.7069  37.6498  38.2126  38.9110  38.9772  39.9817  39.9821
    40.3201  40.3201  40.7343  40.9711  41.1633  41.8504  42.1723  42.1910

          k = 0.0000 0.3849 0.0000 ( 15310 PWs)   bands (ev):

   -11.8454 -11.3763 -10.3733 -10.0094  -9.2503  -9.2502  -9.0247  -9.0247
    -2.5936  -2.5934  -2.4604  -2.4602  -1.4105  -1.2527  -0.3082   0.1669
     0.1673   0.3036   0.3039   1.7847   1.9104   2.0287   2.2036   2.2970
     2.5545   3.2868   3.3838   3.5431   3.5432   4.2273   5.3074   5.3075
    10.6184  10.6186  11.8925  11.8930  12.2221  12.2941  13.5643  14.0979
    15.7678  15.8939  16.2676  16.2677  16.5508  16.6209  17.2200  17.3812
    17.5945  17.5947  18.4676  18.4678  18.9648  18.9649  19.3271  19.5260
    19.6747  20.6665  20.6666  21.4334  21.6041  22.4475  22.8130  23.9684
    23.9684  24.1386  24.3272  25.2465  25.2468  25.4530  26.0032  26.0037
    26.5152  27.2219  27.2220  27.2678  27.2679  27.7964  28.1303  28.5044
    28.5045  29.2317  29.5036  29.5038  30.1521  30.2930  30.2933  30.3665
    30.9469  31.8904  33.1544  33.1594  33.2593  33.2873  33.2875  33.7521
    34.3097  34.3101  35.0727  35.0825  36.0989  36.2071  36.3504  36.6515
    37.0733  37.5482  37.7500  37.7501  38.2293  38.2295  38.6473  38.6476
    40.0381  40.3367  41.3740  41.9713  42.0124  42.0124  43.3019  43.3432

          k = 0.0000 0.3849 0.2701 ( 15286 PWs)   bands (ev):

   -11.7362 -11.5023 -10.2869 -10.1053  -9.1951  -9.1950  -9.0823  -9.0823
    -2.5700  -2.5698  -2.5031  -2.5029  -1.3844  -1.3037   0.1944   0.1948
     0.2633   0.2636   0.2798   1.6346   1.9396   1.9987   2.2431   2.3295
     2.3327   3.3108   3.3593   3.5362   3.9910   3.9911   4.8842   4.8843
    10.7003  10.7006  11.3623  11.3627  12.3504  13.0144  13.4281  15.2426
    15.2547  15.7989  16.6749  16.7788  17.1113  17.1114  17.4104  17.6046
    17.6048  17.7628  18.5126  18.5128  18.7157  19.0630  19.0630  19.3741
    19.4734  19.6588  21.3494  21.3496  22.4471  22.5668  23.1002  23.1003
    23.2019  24.1710  24.2618  24.7363  24.7364  24.8002  25.1937  25.1938
    26.1172  26.4091  26.4096  26.8208  27.3755  27.3760  28.6041  28.9938
    29.1764  29.1767  29.4122  29.4123  30.1181  30.8540  31.1316  31.7832
    32.0850  32.0853  32.6200  32.8807  33.2064  33.2067  33.2803  33.3326
    34.6206  34.9345  34.9349  35.1987  35.6139  36.0669  36.8371  36.8371
    37.4923  37.4925  38.3517  38.6783  38.9376  38.9469  38.9469  40.5844
    40.5847  40.7188  41.0016  41.2614  41.5590  41.8765  42.0991  42.9112

          k = 0.0000-0.5774 0.0000 ( 15310 PWs)   bands (ev):

   -11.1980 -11.1980 -10.7686 -10.7686  -9.2898  -9.2898  -9.0430  -9.0430
    -2.0912  -2.0912  -2.0442  -2.0442  -0.3730  -0.3730  -0.2861  -0.2861
     0.3912   0.3912   0.5198   0.5198   0.5960   0.5960   2.5457   2.5457
     2.6554   2.6554   3.3081   3.3081   3.4663   3.4663   5.3091   5.3091
    11.0143  11.0143  11.9686  11.9687  13.1067  13.1067  14.4334  14.4334
    15.0079  15.0079  16.1189  16.1189  16.4317  16.4317  17.2266  17.2266
    17.7413  17.7413  19.0866  19.0866  19.4122  19.4122  20.6417  20.6417
    20.8782  20.8782  21.6083  21.6083  21.7941  21.7942  22.1705  22.1705
    22.4094  22.4094  23.9152  23.9152  24.8994  24.8994  25.7237  25.7237
    26.9598  26.9598  27.1510  27.1511  27.4535  27.4535  28.1472  28.1472
    28.8766  28.8766  29.5300  29.5300  29.8199  29.8199  30.0605  30.0605
    31.3441  31.3441  32.6535  32.6535  33.2499  33.2499  34.0374  34.0374
    34.7951  34.7951  35.0615  35.0615  35.3560  35.3560  36.1060  36.1060
    36.9180  36.9180  38.5007  38.5007  40.5663  40.5663  40.7008  40.7008
    41.0696  41.0696  41.7899  41.7899  42.4642  42.4642  42.7759  42.7759

          k = 0.0000-0.5774 0.2701 ( 15304 PWs)   bands (ev):

   -11.0973 -11.0973 -10.8831 -10.8831  -9.2298  -9.2298  -9.1064  -9.1064
    -2.0842  -2.0842  -2.0619  -2.0619  -0.3621  -0.3621  -0.3187  -0.3187
     0.3770   0.3770   0.4661   0.4661   1.2215   1.2215   2.5236   2.5236
     2.5728   2.5728   2.6277   2.6277   3.9267   3.9267   4.8559   4.8559
    11.0271  11.0271  11.5466  11.5466  13.6460  13.6460  14.4222  14.4222
    15.5062  15.5062  16.1551  16.1551  17.3818  17.3818  17.4738  17.4738
    17.9870  17.9870  19.0458  19.0458  19.1787  19.1787  19.3825  19.3825
    20.8854  20.8854  21.6496  21.6496  21.7420  21.7420  21.8162  21.8162
    23.0114  23.0114  23.7043  23.7043  24.0236  24.0236  24.9042  24.9042
    26.4147  26.4147  27.0788  27.0788  27.5160  27.5161  28.1001  28.1001
    29.1065  29.1065  29.4113  29.4113  29.6573  29.6573  31.7657  31.7657
    31.8858  31.8858  32.8116  32.8116  33.1226  33.1226  33.2542  33.2542
    34.5827  34.5827  35.4355  35.4355  35.6541  35.6541  38.0263  38.0263
    38.1023  38.1023  39.4364  39.4364  39.9992  39.9992  40.2831  40.2831
    40.4671  40.4671  40.9973  40.9973  41.4929  41.4929  41.7686  41.7686

          k = 0.1667 0.2887 0.0000 ( 15283 PWs)   bands (ev):

   -11.9792 -11.5026  -9.8573  -9.8573  -9.5485  -9.5485  -8.8556  -8.7467
    -3.1027  -2.9701  -2.1485  -2.1485  -1.9953  -1.9953  -0.4930  -0.0089
     0.1349   1.2846   1.2846   1.4122   1.4122   2.3967   2.5631   2.5631
     2.7148   2.7761   3.4136   3.4953   4.2763   4.7598   4.7598   5.4733
    10.0248  11.3162  11.3162  11.3304  12.0322  12.7468  12.7468  14.9039
    14.9039  16.1157  16.2231  16.2231  16.9416  17.0202  17.0736  17.2923
    17.5126  17.9333  17.9333  18.1252  18.1863  18.8179  18.9101  19.7154
    20.5021  20.5021  20.5874  21.0041  21.0041  22.1481  22.9621  24.3550
    24.3550  24.8827  25.2012  25.4954  25.4954  25.9986  25.9986  26.6094
    26.8278  26.9955  26.9955  27.7775  27.7775  27.8439  28.0528  28.0528
    28.1742  28.8142  29.2678  29.2678  29.3819  30.5773  31.3682  31.3883
    31.3956  31.9825  31.9826  32.7258  33.2520  33.6588  33.7280  33.7280
    33.9464  35.1060  35.1060  35.8296  35.8296  35.9277  36.4409  36.4409
    36.7703  37.5530  37.6108  37.8162  37.8162  37.9849  38.0163  38.4479
    39.3876  40.5064  40.5064  40.7001  40.9534  43.0969  43.2451  43.5472

          k = 0.1667 0.2887 0.2701 ( 15280 PWs)   bands (ev):

   -11.8684 -11.6308  -9.7832  -9.7832  -9.6289  -9.6289  -8.8277  -8.7732
    -3.0804  -3.0141  -2.1217  -2.1217  -2.0442  -2.0442   0.0209   0.0933
     0.1041   1.3130   1.3130   1.3773   1.3773   1.4962   2.7413   2.7870
     3.0745   3.0745   3.4340   3.4742   4.1662   4.1662   4.6368   5.2605
    10.0613  10.7346  11.4511  11.4511  12.1824  12.1824  13.3108  15.3580
    15.8143  15.8143  16.2591  16.2591  17.0933  17.2388  17.3756  17.4099
    17.5582  18.0097  18.2530  18.2530  18.3692  18.8320  19.0140  19.1893
    19.5858  19.5858  21.5306  22.2007  22.2561  22.2561  22.5089  23.5747
    23.9037  23.9037  25.0808  25.2176  25.2176  25.4624  25.4624  25.8245
    26.1861  26.1861  26.6440  26.6440  26.7271  26.8492  28.9288  28.9783
    28.9783  29.0123  29.2891  29.8497  29.8497  30.5238  31.9345  32.2721
    32.3775  32.5512  32.5512  33.1152  33.1684  33.2146  33.4578  33.4578
    34.2332  34.8750  34.8750  35.2351  35.5019  35.5019  36.4727  36.5296
    37.2784  37.4930  37.4930  37.8417  38.5674  39.6656  39.6656  40.4875
    40.5023  40.8096  40.8096  40.9144  40.9683  42.2318  42.2319  42.8775

          k = 0.1667 0.4811 0.0000 ( 15301 PWs)   bands (ev):

   -11.4516 -11.0057 -10.7097 -10.3151 -10.0361  -9.6989  -8.7140  -8.5972
    -2.6680  -2.5096  -1.3766  -1.2848  -0.9950  -0.8865  -0.5404  -0.4097
     0.2393   0.7021   0.8178   1.2077   1.2920   1.2941   1.8457   1.9626
     2.2831   2.6075   2.7066   3.0154   3.8625   4.5599   4.5963   5.5949
    10.3566  11.1307  12.1066  12.8269  13.0630  13.3024  13.8417  14.1401
    15.0164  15.2228  15.4767  16.5040  16.7645  16.8432  17.5409  17.6986
    17.7912  17.8040  18.8949  19.0340  19.1621  19.3799  19.4763  19.9714
    20.3098  20.5082  21.3045  21.6109  21.7583  22.1542  22.2272  22.2718
    23.6221  23.6499  23.7063  24.0159  25.2567  25.4449  25.5439  26.0984
    26.3230  26.4452  26.7801  27.1932  27.1961  27.3054  27.8313  28.6053
    28.6069  28.8408  29.2894  29.7454  29.9639  30.0268  30.2869  30.4460
    30.5201  31.8132  31.8144  31.9609  33.2734  33.2953  33.6421  34.2919
    34.3437  35.1590  35.7035  35.7819  36.2660  36.3892  36.5211  36.5569
    37.1502  37.2271  37.4779  38.1148  38.6450  39.5734  40.1521  40.7711
    41.1666  41.3479  41.6478  42.1671  42.4729  42.6608  42.7035  42.7168

          k = 0.1667 0.4811 0.2701 ( 15285 PWs)   bands (ev):

   -11.3474 -11.1250 -10.6166 -10.4197  -9.9557  -9.7873  -8.6844  -8.6260
    -2.6342  -2.5554  -1.3632  -1.3162  -0.9792  -0.9244  -0.5247  -0.4554
     0.7228   0.7554   0.7805   1.2292   1.3044   1.8090   1.9004   1.9586
     2.2182   2.6386   2.6850   2.8172   3.1293   3.9609   4.8953   5.4361
    10.2605  10.6784  12.1190  12.6533  13.1357  13.6767  13.7338  14.8607
    15.5066  16.0827  16.3909  16.5063  16.8807  17.3123  17.5041  17.7505
    17.7737  18.3459  18.4659  18.6174  18.9288  19.0261  19.2193  19.3469
    20.3057  20.5926  20.8346  21.8432  21.8936  21.9938  22.1725  22.7053
    23.0474  23.5231  24.1004  24.4461  24.5245  24.8383  25.1282  25.2788
    25.7806  26.0020  26.1196  26.5995  26.6149  26.9573  27.0361  28.3717
    28.4065  28.8000  29.6350  29.8138  30.0705  30.6672  30.9898  31.7147
    31.7759  32.2597  33.0596  33.2054  33.2186  33.4816  33.6660  33.9710
    34.0371  35.3361  35.5077  35.9828  36.2901  36.3743  37.0626  37.2618
    38.0893  38.1746  38.4103  38.9351  39.3522  39.5573  39.7421  40.0922
    40.1821  40.2204  41.1121  41.4480  41.4907  41.7073  42.2017  42.6563

          k = 0.3333 0.5774 0.0000 ( 15303 PWs)   bands (ev):

   -10.8258 -10.8258 -10.8258 -10.4212 -10.4212 -10.4212  -8.4604  -8.4604
    -2.5191  -2.2415  -1.6205  -1.6205   0.0074   0.0074   0.0078   0.0534
     0.0534   0.0538   1.1240   1.1241   1.1241   1.5833   1.5838   1.5838
     1.6809   1.6815   1.6815   3.7343   3.7344   3.7344   5.3393   5.3396
    10.5709  10.5713  13.8023  13.8023  13.8024  13.8335  13.8336  13.8339
    14.2855  14.2855  14.2858  16.1000  17.7126  17.7140  17.7140  18.3148
    18.3162  18.3162  18.9054  18.9056  19.0536  19.0536  19.0545  19.7436
    20.9001  20.9001  20.9019  20.9518  20.9522  20.9522  23.5288  23.7223
    23.7223  23.7230  23.7370  23.7373  23.9061  25.5547  25.5550  25.5550
    26.2293  26.2293  26.2297  26.2386  26.2389  28.2808  28.2814  28.2814
    28.6395  28.6395  29.0425  29.9299  29.9299  29.9299  30.4046  30.4049
    30.4049  31.1954  31.1956  31.1956  33.3269  33.4120  34.2055  34.2057
    34.2057  36.0055  36.0056  36.0056  36.4549  36.4549  36.4554  37.7690
    37.7692  37.7692  38.5410  38.5414  38.5414  39.9420  39.9420  39.9427
    40.5698  40.5701  41.7552  42.0567  42.0567  42.0572  43.3351  43.4127

          k = 0.3333 0.5774 0.2701 ( 15264 PWs)   bands (ev):

   -10.7306 -10.7306 -10.7305 -10.5287 -10.5287 -10.5286  -8.4595  -8.4595
    -2.4519  -2.3132  -1.6356  -1.6356  -0.0021  -0.0021  -0.0017   0.0294
     0.0294   0.0297   1.5869   1.5872   1.5872   1.5973   1.5978   1.5978
     1.7774   1.7776   1.7777   2.9918   2.9919   2.9919   5.4730   5.4731
    10.2580  10.2582  13.4541  13.4541  13.4543  13.9488  13.9488  13.9491
    15.7603  15.7603  15.7605  16.7782  17.8562  17.8576  17.8576  17.9715
    17.9718  17.9718  18.3806  18.3812  18.3812  18.4959  19.5220  19.5222
    20.8730  20.8730  20.8746  20.9189  20.9189  20.9196  23.6859  23.6860
    23.6877  23.8458  24.1398  24.1398  24.1403  25.3111  25.3112  25.3112
    25.5873  25.5873  25.5874  25.9428  25.9430  26.2783  26.2787  26.2787
    28.1986  28.1986  30.5733  30.5735  30.5735  30.7375  30.7378  30.7378
    31.2903  33.0603  33.0605  33.0605  33.3553  33.3854  34.3025  34.3025
    34.3025  36.4033  36.4033  36.4035  36.4614  37.2456  37.2456  37.2460
    38.6881  38.6883  38.6883  38.8712  38.8712  38.8717  39.9307  39.9312
    39.9312  40.4973  40.4973  40.4975  40.9361  40.9362  42.5111  42.5112

          k =-0.1667 0.0962 0.0000 ( 15258 PWs)   bands (ev):

   -12.2507 -11.7595  -9.5380  -9.2875  -9.1617  -9.1617  -8.9930  -8.9930
    -3.1847  -3.1847  -3.0574  -3.0574  -2.8364  -2.6868  -0.8663   0.9910
     0.9910   1.1234   1.1234   1.4946   1.6178   2.0749   3.0780   3.6297
     3.7046   3.7155   3.7155   3.9291   4.0115   5.0262   5.2875   5.2875
     9.9956   9.9956  10.4726  11.5793  11.6791  11.6791  12.1977  14.9116
    15.5436  15.6239  15.6239  16.0704  16.0704  16.4933  16.9596  17.2575
    17.7065  17.9127  17.9189  18.0483  18.5012  18.5012  18.5636  20.0637
    20.0637  20.2369  20.2369  20.7395  21.2106  21.3001  23.3760  25.7907
    25.7907  26.0471  26.0471  26.0919  26.3235  26.5610  26.7871  26.9368
    26.9368  27.1445  27.4333  27.4333  27.7188  27.7188  27.8411  28.4195
    28.4195  28.6415  28.6415  29.7074  30.9543  31.0669  31.8189  32.0701
    32.0701  32.1615  32.1838  33.1180  33.4281  33.4281  33.4553  34.4626
    34.7166  34.8153  34.8153  35.0407  35.0407  35.2718  35.4249  35.7180
    35.7180  36.3856  37.7177  37.8318  38.2473  38.2978  38.2978  38.5559
    38.8820  39.3584  39.6969  40.4827  40.4827  41.4578  41.8105  41.8105

          k =-0.1667 0.0962 0.2701 ( 15268 PWs)   bands (ev):

   -12.1368 -11.8920  -9.4770  -9.3518  -9.1196  -9.1196  -9.0352  -9.0352
    -3.1655  -3.1655  -3.1015  -3.1015  -2.8114  -2.7360  -0.2557   1.0215
     1.0215   1.0880   1.0880   1.1708   1.5250   1.5866   3.5483   3.6522
     3.6930   3.9495   3.9907   4.1317   4.1317   4.5277   4.9365   4.9365
    10.1421  10.1421  10.6593  10.9935  10.9935  11.5254  12.9617  15.3943
    15.4249  15.6039  16.0177  16.0177  16.1356  16.1356  17.0577  17.2037
    17.7575  17.8636  18.1660  18.4191  18.5477  18.9649  18.9649  19.5049
    19.5049  19.8793  21.5331  21.9104  21.9104  22.4182  22.6807  24.5507
    24.5507  24.8190  25.4817  25.4817  26.0751  26.0751  26.3321  26.4023
    26.4367  26.6742  27.1641  27.1641  27.3216  27.3216  28.0526  28.6434
    28.6434  29.5184  29.5184  30.2844  30.9524  30.9727  31.1790  32.4306
    32.4306  32.4480  32.7971  32.9306  33.0732  33.0732  33.1831  34.4379
    34.4379  34.7747  34.8467  34.9157  34.9157  35.0861  35.0925  36.2232
    36.7069  36.7069  37.6498  38.2129  38.9108  38.9771  39.9817  39.9817
    40.3201  40.3201  40.7346  40.9710  41.1634  41.8507  42.1723  42.1911

          k = 0.1667 0.0962 0.2701 ( 15268 PWs)   bands (ev):

   -12.1368 -11.8920  -9.4769  -9.3517  -9.1197  -9.1196  -9.0353  -9.0352
    -3.1657  -3.1655  -3.1017  -3.1015  -2.8112  -2.7357  -0.2557   1.0215
     1.0220   1.0880   1.0885   1.1708   1.5245   1.5860   3.5481   3.6531
     3.6939   3.9486   3.9898   4.1318   4.1321   4.5275   4.9365   4.9367
    10.1416  10.1420  10.6598  10.9928  10.9935  11.5261  12.9618  15.3943
    15.4247  15.6038  16.0177  16.0178  16.1356  16.1358  17.0567  17.2027
    17.7588  17.8649  18.1660  18.4189  18.5477  18.9649  18.9650  19.5050
    19.5051  19.8793  21.5330  21.9104  21.9107  22.4182  22.6805  24.5507
    24.5510  24.8189  25.4818  25.4819  26.0750  26.0751  26.3330  26.4032
    26.4362  26.6738  27.1629  27.1637  27.3208  27.3216  28.0526  28.6435
    28.6437  29.5186  29.5191  30.2844  30.9522  30.9726  31.1780  32.4303
    32.4311  32.4479  32.7963  32.9305  33.0731  33.0739  33.1833  34.4371
    34.4379  34.7746  34.8475  34.9149  34.9157  35.0859  35.0934  36.2238
    36.7065  36.7069  37.6498  38.2126  38.9110  38.9772  39.9817  39.9821
    40.3201  40.3201  40.7343  40.9711  41.1633  41.8504  42.1723  42.1909

          k = 0.1667-0.0962 0.2701 ( 15268 PWs)   bands (ev):

   -12.1368 -11.8920  -9.4770  -9.3518  -9.1196  -9.1196  -9.0352  -9.0352
    -3.1655  -3.1655  -3.1015  -3.1015  -2.8114  -2.7360  -0.2557   1.0215
     1.0215   1.0880   1.0880   1.1708   1.5250   1.5866   3.5483   3.6522
     3.6930   3.9495   3.9907   4.1317   4.1317   4.5277   4.9365   4.9365
    10.1421  10.1421  10.6593  10.9935  10.9935  11.5254  12.9617  15.3943
    15.4249  15.6039  16.0177  16.0177  16.1356  16.1356  17.0577  17.2037
    17.7575  17.8636  18.1660  18.4191  18.5477  18.9649  18.9649  19.5049
    19.5049  19.8793  21.5331  21.9104  21.9104  22.4182  22.6807  24.5507
    24.5507  24.8190  25.4817  25.4817  26.0751  26.0751  26.3321  26.4023
    26.4367  26.6742  27.1641  27.1641  27.3216  27.3216  28.0526  28.6434
    28.6434  29.5184  29.5184  30.2844  30.9524  30.9727  31.1790  32.4306
    32.4306  32.4480  32.7971  32.9306  33.0732  33.0732  33.1831  34.4379
    34.4379  34.7747  34.8467  34.9157  34.9157  35.0861  35.0925  36.2232
    36.7069  36.7069  37.6498  38.2129  38.9108  38.9771  39.9817  39.9817
    40.3201  40.3201  40.7346  40.9710  41.1634  41.8507  42.1720  42.1913

          k =-0.3333 0.1925 0.0000 ( 15310 PWs)   bands (ev):

   -11.8454 -11.3763 -10.3733 -10.0095  -9.2502  -9.2502  -9.0246  -9.0246
    -2.5934  -2.5934  -2.4602  -2.4602  -1.4108  -1.2530  -0.3082   0.1669
     0.1669   0.3035   0.3035   1.7848   1.9110   2.0293   2.2029   2.2963
     2.5545   3.2876   3.3846   3.5430   3.5430   4.2275   5.3073   5.3073
    10.6187  10.6187  11.8932  11.8932  12.2221  12.2938  13.5637  14.0979
    15.7680  15.8938  16.2677  16.2677  16.5512  16.6207  17.2207  17.3815
    17.5943  17.5943  18.4675  18.4675  18.9645  18.9645  19.3260  19.5248
    19.6752  20.6663  20.6664  21.4334  21.6043  22.4478  22.8130  23.9688
    23.9688  24.1376  24.3262  25.2463  25.2463  25.4534  26.0042  26.0042
    26.5155  27.2222  27.2222  27.2677  27.2677  27.7964  28.1309  28.5042
    28.5042  29.2319  29.5035  29.5035  30.1527  30.2934  30.2934  30.3666
    30.9470  31.8906  33.1544  33.1598  33.2599  33.2873  33.2873  33.7522
    34.3106  34.3106  35.0728  35.0817  36.0989  36.2073  36.3501  36.6514
    37.0733  37.5483  37.7501  37.7501  38.2292  38.2292  38.6473  38.6473
    40.0381  40.3359  41.3740  41.9712  42.0123  42.0123  43.3422  43.3458

          k =-0.3333 0.1925 0.2701 ( 15286 PWs)   bands (ev):

   -11.7362 -11.5023 -10.2870 -10.1053  -9.1950  -9.1950  -9.0822  -9.0822
    -2.5698  -2.5698  -2.5029  -2.5029  -1.3848  -1.3041   0.1944   0.1944
     0.2632   0.2632   0.2798   1.6346   1.9402   1.9993   2.2424   2.3289
     2.3328   3.3116   3.3601   3.5363   3.9909   3.9909   4.8841   4.8841
    10.7008  10.7008  11.3629  11.3629  12.3500  13.0139  13.4281  15.2426
    15.2548  15.7991  16.6753  16.7789  17.1113  17.1113  17.4109  17.6045
    17.6045  17.7629  18.5124  18.5124  18.7160  19.0627  19.0627  19.3729
    19.4722  19.6589  21.3492  21.3492  22.4474  22.5669  23.1000  23.1000
    23.2020  24.1701  24.2608  24.7367  24.7367  24.8004  25.1942  25.1942
    26.1176  26.4101  26.4101  26.8215  27.3759  27.3759  28.6042  28.9942
    29.1763  29.1763  29.4118  29.4118  30.1185  30.8540  31.1317  31.7839
    32.0850  32.0850  32.6200  32.8807  33.2065  33.2066  33.2808  33.3327
    34.6205  34.9353  34.9353  35.1981  35.6133  36.0666  36.8372  36.8372
    37.4923  37.4923  38.3518  38.6783  38.9378  38.9469  38.9469  40.5843
    40.5843  40.7184  41.0017  41.2616  41.5591  41.8765  42.0991  42.9109

          k = 0.3333 0.1925 0.2701 ( 15286 PWs)   bands (ev):

   -11.7362 -11.5023 -10.2869 -10.1053  -9.1951  -9.1950  -9.0823  -9.0823
    -2.5700  -2.5698  -2.5031  -2.5029  -1.3844  -1.3037   0.1944   0.1948
     0.2633   0.2636   0.2798   1.6346   1.9396   1.9987   2.2431   2.3295
     2.3327   3.3108   3.3593   3.5362   3.9910   3.9911   4.8842   4.8843
    10.7003  10.7006  11.3623  11.3627  12.3504  13.0144  13.4281  15.2426
    15.2547  15.7989  16.6749  16.7788  17.1113  17.1114  17.4104  17.6046
    17.6048  17.7628  18.5126  18.5128  18.7157  19.0630  19.0630  19.3741
    19.4734  19.6588  21.3494  21.3496  22.4471  22.5668  23.1002  23.1003
    23.2019  24.1710  24.2618  24.7363  24.7364  24.8002  25.1937  25.1938
    26.1172  26.4091  26.4096  26.8208  27.3755  27.3760  28.6041  28.9938
    29.1764  29.1767  29.4122  29.4123  30.1181  30.8540  31.1316  31.7832
    32.0849  32.0853  32.6200  32.8807  33.2064  33.2067  33.2803  33.3326
    34.6206  34.9345  34.9349  35.1987  35.6139  36.0669  36.8371  36.8371
    37.4923  37.4925  38.3517  38.6783  38.9376  38.9469  38.9469  40.5844
    40.5847  40.7188  41.0016  41.2614  41.5590  41.8765  42.0991  42.9111

          k = 0.3333-0.1925 0.2701 ( 15286 PWs)   bands (ev):

   -11.7362 -11.5023 -10.2870 -10.1053  -9.1950  -9.1950  -9.0822  -9.0822
    -2.5698  -2.5698  -2.5029  -2.5029  -1.3848  -1.3041   0.1944   0.1944
     0.2632   0.2632   0.2798   1.6346   1.9402   1.9993   2.2424   2.3289
     2.3328   3.3116   3.3601   3.5363   3.9909   3.9909   4.8841   4.8841
    10.7008  10.7008  11.3629  11.3629  12.3500  13.0139  13.4281  15.2426
    15.2548  15.7991  16.6753  16.7789  17.1113  17.1113  17.4109  17.6045
    17.6045  17.7629  18.5124  18.5124  18.7160  19.0627  19.0627  19.3729
    19.4722  19.6589  21.3492  21.3492  22.4474  22.5669  23.1000  23.1000
    23.2021  24.1701  24.2608  24.7367  24.7367  24.8004  25.1942  25.1942
    26.1176  26.4101  26.4101  26.8215  27.3759  27.3759  28.6042  28.9942
    29.1763  29.1763  29.4118  29.4118  30.1185  30.8540  31.1317  31.7839
    32.0850  32.0850  32.6200  32.8807  33.2065  33.2066  33.2808  33.3327
    34.6205  34.9353  34.9353  35.1981  35.6133  36.0666  36.8372  36.8372
    37.4923  37.4923  38.3518  38.6783  38.9378  38.9469  38.9469  40.5843
    40.5843  40.7184  41.0017  41.2616  41.5591  41.8765  42.0991  42.9109

          k = 0.5000-0.2887 0.0000 ( 15310 PWs)   bands (ev):

   -11.1980 -11.1980 -10.7687 -10.7687  -9.2897  -9.2897  -9.0429  -9.0429
    -2.0911  -2.0911  -2.0440  -2.0440  -0.3732  -0.3732  -0.2865  -0.2865
     0.3907   0.3907   0.5193   0.5193   0.5960   0.5960   2.5464   2.5464
     2.6561   2.6561   3.3081   3.3081   3.4661   3.4661   5.3090   5.3090
    11.0146  11.0146  11.9691  11.9691  13.1066  13.1066  14.4333  14.4333
    15.0075  15.0075  16.1191  16.1191  16.4319  16.4319  17.2271  17.2271
    17.7410  17.7410  19.0855  19.0855  19.4125  19.4125  20.6406  20.6406
    20.8784  20.8784  21.6073  21.6073  21.7931  21.7931  22.1706  22.1706
    22.4106  22.4106  23.9156  23.9156  24.8990  24.8990  25.7250  25.7250
    26.9601  26.9601  27.1503  27.1503  27.4538  27.4538  28.1470  28.1470
    28.8766  28.8766  29.5304  29.5304  29.8203  29.8203  30.0603  30.0603
    31.3448  31.3448  32.6539  32.6539  33.2499  33.2499  34.0381  34.0381
    34.7953  34.7953  35.0612  35.0612  35.3559  35.3559  36.1061  36.1061
    36.9178  36.9178  38.5005  38.5005  40.5658  40.5658  40.7005  40.7005
    41.0696  41.0696  41.7902  41.7902  42.4634  42.4634  42.7755  42.7755

          k = 0.5000-0.2887 0.2701 ( 15304 PWs)   bands (ev):

   -11.0974 -11.0974 -10.8832 -10.8832  -9.2297  -9.2297  -9.1064  -9.1064
    -2.0841  -2.0841  -2.0617  -2.0617  -0.3624  -0.3624  -0.3190  -0.3190
     0.3766   0.3766   0.4656   0.4656   1.2215   1.2215   2.5237   2.5237
     2.5735   2.5735   2.6283   2.6283   3.9266   3.9266   4.8557   4.8557
    11.0274  11.0274  11.5471  11.5471  13.6459  13.6459  14.4220  14.4220
    15.5060  15.5060  16.1553  16.1553  17.3822  17.3822  17.4739  17.4739
    17.9867  17.9867  19.0449  19.0449  19.1789  19.1789  19.3825  19.3825
    20.8846  20.8846  21.6485  21.6485  21.7410  21.7410  21.8163  21.8163
    23.0116  23.0116  23.7046  23.7046  24.0241  24.0241  24.9050  24.9050
    26.4154  26.4155  27.0793  27.0793  27.5161  27.5161  28.1007  28.1007
    29.1061  29.1061  29.4110  29.4110  29.6573  29.6573  31.7656  31.7656
    31.8859  31.8859  32.8120  32.8120  33.1227  33.1227  33.2544  33.2544
    34.5834  34.5834  35.4353  35.4353  35.6537  35.6537  38.0263  38.0263
    38.1024  38.1024  39.4364  39.4364  39.9994  39.9994  40.2829  40.2829
    40.4668  40.4668  40.9971  40.9971  41.4935  41.4935  41.7684  41.7684

          k =-0.1667 0.2887 0.0000 ( 15283 PWs)   bands (ev):

   -11.9792 -11.5026  -9.8574  -9.8573  -9.5485  -9.5484  -8.8555  -8.7466
    -3.1025  -2.9698  -2.1488  -2.1485  -1.9956  -1.9953  -0.4930  -0.0093
     0.1345   1.2846   1.2851   1.4121   1.4127   2.3967   2.5631   2.5633
     2.7140   2.7754   3.4144   3.4961   4.2759   4.7598   4.7599   5.4733
    10.0249  11.3160  11.3163  11.3312  12.0321  12.7463  12.7469  14.9040
    14.9040  16.1156  16.2230  16.2233  16.9414  17.0216  17.0734  17.2934
    17.5123  17.9330  17.9333  18.1249  18.1850  18.8161  18.9104  19.7156
    20.5019  20.5022  20.5871  21.0040  21.0041  22.1484  22.9621  24.3547
    24.3553  24.8823  25.2010  25.4947  25.4958  25.9989  25.9990  26.6092
    26.8290  26.9950  26.9952  27.7775  27.7777  27.8437  28.0531  28.0537
    28.1741  28.8144  29.2674  29.2679  29.3819  30.5777  31.3681  31.3885
    31.3958  31.9826  31.9826  32.7259  33.2516  33.6596  33.7279  33.7279
    33.9470  35.1061  35.1063  35.8290  35.8299  35.9280  36.4407  36.4410
    36.7704  37.5530  37.6109  37.8162  37.8164  37.9846  38.0162  38.4472
    39.3869  40.5069  40.5070  40.6996  40.9536  43.0966  43.2447  43.5469

          k =-0.1667 0.2887 0.2701 ( 15280 PWs)   bands (ev):

   -11.8684 -11.6308  -9.7832  -9.7832  -9.6290  -9.6289  -8.8276  -8.7731
    -3.0803  -3.0139  -2.1219  -2.1217  -2.0445  -2.0442   0.0205   0.0929
     0.1041   1.3129   1.3135   1.3773   1.3778   1.4962   2.7405   2.7863
     3.0745   3.0746   3.4348   3.4751   4.1662   4.1663   4.6365   5.2604
    10.0617  10.7353  11.4508  11.4512  12.1820  12.1825  13.3107  15.3579
    15.8143  15.8144  16.2590  16.2593  17.0945  17.2399  17.3755  17.4097
    17.5579  18.0089  18.2527  18.2530  18.3689  18.8304  19.0141  19.1888
    19.5856  19.5858  21.5302  22.2010  22.2561  22.2562  22.5090  23.5742
    23.9036  23.9038  25.0809  25.2176  25.2180  25.4621  25.4624  25.8248
    26.1861  26.1864  26.6436  26.6439  26.7280  26.8498  28.9285  28.9781
    28.9784  29.0122  29.2894  29.8492  29.8498  30.5242  31.9345  32.2718
    32.3774  32.5516  32.5521  33.1150  33.1681  33.2148  33.4580  33.4584
    34.2339  34.8744  34.8750  35.2351  35.5013  35.5019  36.4722  36.5297
    37.2782  37.4927  37.4930  37.8421  38.5673  39.6654  39.6658  40.4874
    40.5025  40.8097  40.8098  40.9141  40.9680  42.2323  42.2325  42.8772

          k = 0.3333-0.0000 0.2701 ( 15280 PWs)   bands (ev):

   -11.8684 -11.6308  -9.7832  -9.7832  -9.6290  -9.6289  -8.8276  -8.7731
    -3.0803  -3.0139  -2.1219  -2.1217  -2.0445  -2.0442   0.0205   0.0929
     0.1041   1.3129   1.3135   1.3773   1.3778   1.4962   2.7405   2.7863
     3.0745   3.0746   3.4348   3.4751   4.1662   4.1663   4.6365   5.2604
    10.0617  10.7353  11.4508  11.4512  12.1820  12.1825  13.3107  15.3579
    15.8143  15.8144  16.2590  16.2593  17.0945  17.2399  17.3755  17.4097
    17.5579  18.0089  18.2527  18.2530  18.3689  18.8304  19.0141  19.1888
    19.5856  19.5858  21.5302  22.2010  22.2561  22.2562  22.5090  23.5742
    23.9036  23.9038  25.0809  25.2176  25.2180  25.4621  25.4624  25.8248
    26.1861  26.1864  26.6436  26.6439  26.7280  26.8498  28.9285  28.9781
    28.9784  29.0122  29.2894  29.8492  29.8498  30.5242  31.9345  32.2718
    32.3774  32.5516  32.5521  33.1150  33.1681  33.2148  33.4580  33.4584
    34.2339  34.8744  34.8750  35.2351  35.5013  35.5019  36.4722  36.5297
    37.2782  37.4927  37.4930  37.8421  38.5673  39.6654  39.6657  40.4874
    40.5025  40.8097  40.8098  40.9141  40.9680  42.2322  42.2324  42.8773

          k =-0.3333 0.3849 0.0000 ( 15301 PWs)   bands (ev):

   -11.4517 -11.0057 -10.7098 -10.3151 -10.0361  -9.6988  -8.7139  -8.5972
    -2.6679  -2.5093  -1.3765  -1.2847  -0.9953  -0.8868  -0.5407  -0.4101
     0.2393   0.7019   0.8175   1.2070   1.2921   1.2935   1.8462   1.9631
     2.2831   2.6082   2.7074   3.0154   3.8626   4.5596   4.5962   5.5949
    10.3566  11.1313  12.1069  12.8269  13.0633  13.3023  13.8417  14.1398
    15.0165  15.2227  15.4763  16.5041  16.7643  16.8440  17.5421  17.6988
    17.7906  17.8041  18.8938  19.0340  19.1613  19.3798  19.4760  19.9716
    20.3081  20.5080  21.3045  21.6104  21.7574  22.1553  22.2274  22.2714
    23.6217  23.6503  23.7065  24.0156  25.2576  25.4449  25.5453  26.0985
    26.3232  26.4447  26.7799  27.1930  27.1956  27.3053  27.8313  28.6056
    28.6070  28.8413  29.2895  29.7461  29.9637  30.0272  30.2870  30.4458
    30.5203  31.8134  31.8149  31.9611  33.2737  33.2952  33.6421  34.2916
    34.3438  35.1591  35.7041  35.7823  36.2656  36.3894  36.5211  36.5567
    37.1501  37.2273  37.4778  38.1150  38.6449  39.5730  40.1513  40.7710
    41.1661  41.3478  41.6482  42.1672  42.4725  42.6606  42.7038  42.7164

          k = 0.5000 0.0962 0.0000 ( 15301 PWs)   bands (ev):

   -11.4517 -11.0057 -10.7097 -10.3150 -10.0361  -9.6989  -8.7140  -8.5972
    -2.6679  -2.5094  -1.3768  -1.2850  -0.9952  -0.8867  -0.5403  -0.4096
     0.2393   0.7024   0.8180   1.2074   1.2920   1.2938   1.8456   1.9625
     2.2832   2.6078   2.7070   3.0154   3.8625   4.5597   4.5964   5.5949
    10.3566  11.1310  12.1065  12.8269  13.0628  13.3026  13.8417  14.1403
    15.0164  15.2226  15.4766  16.5037  16.7644  16.8438  17.5419  17.6980
    17.7913  17.8040  18.8949  19.0339  19.1615  19.3801  19.4764  19.9713
    20.3085  20.5082  21.3042  21.6106  21.7580  22.1541  22.2274  22.2725
    23.6227  23.6503  23.7062  24.0157  25.2564  25.4446  25.5443  26.0985
    26.3234  26.4452  26.7801  27.1932  27.1959  27.3051  27.8312  28.6060
    28.6066  28.8408  29.2896  29.7458  29.9636  30.0271  30.2865  30.4460
    30.5201  31.8133  31.8148  31.9609  33.2736  33.2951  33.6421  34.2916
    34.3439  35.1592  35.7032  35.7822  36.2661  36.3893  36.5210  36.5567
    37.1502  37.2271  37.4780  38.1150  38.6452  39.5731  40.1519  40.7710
    41.1663  41.3479  41.6484  42.1669  42.4726  42.6606  42.7032  42.7169

          k =-0.3333 0.3849 0.2701 ( 15285 PWs)   bands (ev):

   -11.3474 -11.1250 -10.6167 -10.4197  -9.9557  -9.7872  -8.6844  -8.6260
    -2.6340  -2.5552  -1.3631  -1.3161  -0.9795  -0.9247  -0.5250  -0.4557
     0.7226   0.7554   0.7803   1.2286   1.3039   1.8092   1.9008   1.9590
     2.2183   2.6393   2.6857   2.8172   3.1293   3.9608   4.8950   5.4360
    10.2608  10.6789  12.1193  12.6536  13.1355  13.6765  13.7337  14.8606
    15.5066  16.0824  16.3910  16.5065  16.8813  17.3120  17.5053  17.7502
    17.7738  18.3459  18.4660  18.6165  18.9284  19.0255  19.2193  19.3470
    20.3040  20.5913  20.8346  21.8430  21.8942  21.9929  22.1722  22.7046
    23.0476  23.5234  24.1002  24.4469  24.5251  24.8384  25.1281  25.2800
    25.7808  26.0024  26.1200  26.5996  26.6154  26.9573  27.0364  28.3715
    28.4070  28.7999  29.6347  29.8138  30.0702  30.6672  30.9900  31.7148
    31.7759  32.2596  33.0601  33.2053  33.2189  33.4820  33.6662  33.9713
    34.0372  35.3359  35.5073  35.9825  36.2898  36.3748  37.0626  37.2620
    38.0894  38.1745  38.4105  38.9351  39.3524  39.5572  39.7421  40.0919
    40.1821  40.2200  41.1119  41.4480  41.4905  41.7071  42.2018  42.6560

          k = 0.5000 0.0962 0.2701 ( 15285 PWs)   bands (ev):

   -11.3474 -11.1250 -10.6166 -10.4196  -9.9557  -9.7873  -8.6844  -8.6260
    -2.6340  -2.5552  -1.3634  -1.3164  -0.9794  -0.9246  -0.5246  -0.4553
     0.7230   0.7554   0.7808   1.2289   1.3042   1.8088   1.9003   1.9585
     2.2183   2.6389   2.6853   2.8173   3.1292   3.9610   4.8951   5.4360
    10.2607  10.6787  12.1189  12.6532  13.1358  13.6768  13.7337  14.8606
    15.5067  16.0825  16.3910  16.5061  16.8811  17.3122  17.5051  17.7506
    17.7731  18.3458  18.4660  18.6175  18.9287  19.0260  19.2190  19.3469
    20.3044  20.5916  20.8346  21.8436  21.8935  21.9934  22.1732  22.7050
    23.0476  23.5234  24.1007  24.4463  24.5244  24.8385  25.1280  25.2793
    25.7807  26.0021  26.1194  26.5997  26.6148  26.9571  27.0362  28.3717
    28.4068  28.8000  29.6352  29.8136  30.0705  30.6669  30.9899  31.7149
    31.7759  32.2599  33.0597  33.2053  33.2187  33.4818  33.6661  33.9712
    34.0371  35.3360  35.5078  35.9829  36.2898  36.3741  37.0626  37.2619
    38.0895  38.1747  38.4105  38.9348  39.3524  39.5573  39.7420  40.0923
    40.1821  40.2201  41.1122  41.4478  41.4905  41.7073  42.2017  42.6563

          k =-0.5000-0.0962 0.2701 ( 15285 PWs)   bands (ev):

   -11.3474 -11.1250 -10.6166 -10.4196  -9.9557  -9.7873  -8.6844  -8.6260
    -2.6340  -2.5552  -1.3634  -1.3164  -0.9794  -0.9246  -0.5246  -0.4553
     0.7230   0.7554   0.7808   1.2289   1.3042   1.8088   1.9003   1.9585
     2.2183   2.6389   2.6853   2.8173   3.1292   3.9610   4.8951   5.4360
    10.2607  10.6787  12.1189  12.6532  13.1358  13.6768  13.7337  14.8606
    15.5067  16.0825  16.3909  16.5061  16.8811  17.3122  17.5051  17.7507
    17.7731  18.3458  18.4660  18.6175  18.9287  19.0260  19.2190  19.3469
    20.3044  20.5916  20.8345  21.8436  21.8935  21.9934  22.1732  22.7050
    23.0476  23.5234  24.1007  24.4463  24.5244  24.8385  25.1280  25.2793
    25.7807  26.0021  26.1194  26.5997  26.6148  26.9571  27.0362  28.3717
    28.4068  28.8000  29.6352  29.8136  30.0705  30.6669  30.9899  31.7149
    31.7759  32.2599  33.0597  33.2053  33.2187  33.4818  33.6661  33.9712
    34.0371  35.3360  35.5078  35.9829  36.2898  36.3741  37.0626  37.2619
    38.0895  38.1747  38.4105  38.9348  39.3524  39.5573  39.7420  40.0923
    40.1821  40.2201  41.1122  41.4478  41.4905  41.7073  42.2017  42.6563

          k = 0.3333-0.3849 0.2701 ( 15285 PWs)   bands (ev):

   -11.3474 -11.1250 -10.6167 -10.4197  -9.9557  -9.7872  -8.6844  -8.6260
    -2.6340  -2.5552  -1.3631  -1.3161  -0.9795  -0.9247  -0.5250  -0.4557
     0.7226   0.7554   0.7803   1.2286   1.3039   1.8092   1.9008   1.9590
     2.2183   2.6393   2.6857   2.8172   3.1293   3.9608   4.8950   5.4360
    10.2608  10.6789  12.1193  12.6536  13.1355  13.6765  13.7337  14.8606
    15.5066  16.0824  16.3910  16.5065  16.8813  17.3120  17.5053  17.7502
    17.7738  18.3459  18.4660  18.6165  18.9284  19.0255  19.2193  19.3470
    20.3040  20.5913  20.8346  21.8430  21.8942  21.9929  22.1722  22.7046
    23.0476  23.5234  24.1002  24.4469  24.5251  24.8384  25.1281  25.2800
    25.7808  26.0024  26.1200  26.5996  26.6154  26.9573  27.0364  28.3715
    28.4070  28.7999  29.6347  29.8138  30.0702  30.6672  30.9900  31.7148
    31.7759  32.2596  33.0601  33.2053  33.2189  33.4820  33.6662  33.9713
    34.0372  35.3359  35.5073  35.9825  36.2898  36.3748  37.0626  37.2620
    38.0894  38.1745  38.4105  38.9351  39.3524  39.5572  39.7421  40.0919
    40.1821  40.2200  41.1119  41.4480  41.4905  41.7071  42.2018  42.6559

          k =-0.3333-0.3849-0.2701 ( 15285 PWs)   bands (ev):

   -11.3474 -11.1250 -10.6166 -10.4197  -9.9557  -9.7873  -8.6844  -8.6260
    -2.6342  -2.5554  -1.3632  -1.3162  -0.9792  -0.9244  -0.5247  -0.4554
     0.7228   0.7554   0.7805   1.2292   1.3044   1.8090   1.9004   1.9586
     2.2182   2.6386   2.6850   2.8172   3.1293   3.9609   4.8953   5.4361
    10.2605  10.6784  12.1190  12.6533  13.1357  13.6767  13.7338  14.8607
    15.5066  16.0827  16.3909  16.5063  16.8807  17.3123  17.5041  17.7505
    17.7737  18.3459  18.4659  18.6174  18.9288  19.0261  19.2193  19.3469
    20.3057  20.5926  20.8346  21.8432  21.8936  21.9938  22.1725  22.7053
    23.0474  23.5231  24.1004  24.4461  24.5245  24.8383  25.1282  25.2788
    25.7806  26.0020  26.1196  26.5995  26.6149  26.9573  27.0361  28.3717
    28.4065  28.8000  29.6350  29.8138  30.0705  30.6672  30.9898  31.7147
    31.7759  32.2597  33.0596  33.2054  33.2186  33.4816  33.6660  33.9710
    34.0371  35.3361  35.5077  35.9828  36.2901  36.3743  37.0626  37.2618
    38.0893  38.1746  38.4103  38.9351  39.3522  39.5573  39.7421  40.0922
    40.1821  40.2204  41.1121  41.4480  41.4907  41.7073  42.2017  42.6563

     highest occupied, lowest unoccupied level (ev):     5.5949    9.7317

!    total energy              =    -318.88895090 Ry
     Harris-Foulkes estimate   =    -318.88895089 Ry
     estimated scf accuracy    <          4.3E-09 Ry

     total all-electron energy =     -1275.194115 Ry

     The total energy is the sum of the following terms:

     one-electron contribution =     -41.32946405 Ry
     hartree contribution      =      57.55732711 Ry
     xc contribution           =     -70.72249688 Ry
     ewald contribution        =    -158.94470358 Ry
     one-center paw contrib.   =    -105.44961350 Ry

     convergence has been achieved in  10 iterations

     negative rho (up, down):  1.501E-04 0.000E+00

     Forces acting on atoms (cartesian axes, Ry/au):

     atom    1 type  1   force =    -0.00008191    0.00004751    0.00004108
     atom    2 type  1   force =     0.00008210   -0.00004718   -0.00004108
     atom    3 type  2   force =    -0.00008047    0.00004929   -0.00000105
     atom    4 type  2   force =     0.00008293   -0.00004504    0.00000105
     atom    5 type  1   force =    -0.00008155    0.00004708    0.00004111
     atom    6 type  1   force =     0.00008143   -0.00004701   -0.00004114
     atom    7 type  2   force =    -0.00008360    0.00004826   -0.00000103
     atom    8 type  2   force =     0.00008108   -0.00004681    0.00000085
     atom    9 type  1   force =    -0.00008143    0.00004701    0.00004114
     atom   10 type  1   force =     0.00008155   -0.00004708   -0.00004111
     atom   11 type  2   force =    -0.00008108    0.00004681   -0.00000085
     atom   12 type  2   force =     0.00008360   -0.00004826    0.00000103
     atom   13 type  1   force =    -0.00008210    0.00004718    0.00004108
     atom   14 type  1   force =     0.00008191   -0.00004751   -0.00004108
     atom   15 type  2   force =    -0.00008293    0.00004504   -0.00000105
     atom   16 type  2   force =     0.00008047   -0.00004929    0.00000105

     Total force =     0.000396     Total SCF correction =     0.000015


     Computing stress (Cartesian axis) and pressure


     negative rho (up, down):  1.501E-04 0.000E+00
          total   stress  (Ry/bohr**3)                   (kbar)     P=   61.35
   0.00040749  -0.00000043   0.00000000         59.94     -0.06      0.00
  -0.00000043   0.00040699  -0.00000000         -0.06     59.87     -0.00
   0.00000000  -0.00000000   0.00043674          0.00     -0.00     64.25


     BFGS Geometry Optimization

     number of scf cycles    =   1
     number of bfgs steps    =   0

     enthalpy new            =    -318.5813232810 Ry

     new trust radius        =       0.0145679290 bohr
     new conv_thr            =       0.0000001000 Ry

     new unit-cell volume =    910.32034 a.u.^3 (   134.89556 Ang^3 )
     density =      2.44394 g/cm^3

CELL_PARAMETERS (bohr)
   9.476333336  -0.000102472   0.000000060
  -4.738255411   8.206694168  -0.000000060
   0.000000075  -0.000000043  11.705457213

ATOMIC_POSITIONS (crystal)
B        0.166664241   0.333335799   0.250003518
B        0.333335799   0.166664241   0.749996482
N        0.166664502   0.333336017   0.749999910
N        0.333336017   0.166664502   0.250000090
B        0.666664253   0.333335747   0.250003521
B        0.833335738   0.166664262   0.749996477
N        0.666664109   0.333335891   0.749999912
N        0.833335714   0.166664286   0.250000073
B        0.166664262   0.833335738   0.250003523
B        0.333335747   0.666664253   0.749996479
N        0.166664286   0.833335714   0.749999927
N        0.333335891   0.666664109   0.250000088
B        0.666664201   0.833335759   0.250003518
B        0.833335759   0.666664201   0.749996482
N        0.666663983   0.833335498   0.749999910
N        0.833335498   0.666663983   0.250000090



     Writing output data file pwscf.save/
     NEW-OLD atomic charge density approx. for the potential

     Check: negative/imaginary core charge=   -0.000003    0.000000

     negative rho (up, down):  1.154E-04 0.000E+00
     extrapolated charge   64.36900, renormalised to   64.00000

     total cpu time spent up to now is      284.0 secs

     Self-consistent Calculation

     iteration #  1     ecut=   100.00 Ry     beta= 0.10
     Davidson diagonalization with overlap
     ethr =  1.00E-06,  avg # of iterations =  2.8

     negative rho (up, down):  1.121E-04 0.000E+00

     total cpu time spent up to now is      324.8 secs

     total energy              =    -318.88831778 Ry
     Harris-Foulkes estimate   =    -318.69630763 Ry
     estimated scf accuracy    <       0.00309479 Ry

     iteration #  2     ecut=   100.00 Ry     beta= 0.10
     Davidson diagonalization with overlap
     ethr =  4.84E-06,  avg # of iterations =  2.2

     negative rho (up, down):  1.151E-04 0.000E+00

     total cpu time spent up to now is      350.3 secs

     total energy              =    -318.89101019 Ry
     Harris-Foulkes estimate   =    -318.89105516 Ry
     estimated scf accuracy    <       0.00040130 Ry

     iteration #  3     ecut=   100.00 Ry     beta= 0.10
     Davidson diagonalization with overlap
     ethr =  6.27E-07,  avg # of iterations =  1.0

     negative rho (up, down):  1.294E-04 0.000E+00

     total cpu time spent up to now is      370.7 secs

     total energy              =    -318.89087747 Ry
     Harris-Foulkes estimate   =    -318.89101424 Ry
     estimated scf accuracy    <       0.00026590 Ry

     iteration #  4     ecut=   100.00 Ry     beta= 0.10
     Davidson diagonalization with overlap
     ethr =  4.15E-07,  avg # of iterations =  1.0

     negative rho (up, down):  1.295E-04 0.000E+00

     total cpu time spent up to now is      391.3 secs

     total energy              =    -318.89093222 Ry
     Harris-Foulkes estimate   =    -318.89093235 Ry
     estimated scf accuracy    <       0.00000322 Ry

     iteration #  5     ecut=   100.00 Ry     beta= 0.10
     Davidson diagonalization with overlap
     ethr =  5.03E-09,  avg # of iterations =  1.3

     negative rho (up, down):  1.362E-04 0.000E+00

     total cpu time spent up to now is      412.9 secs

     total energy              =    -318.89093186 Ry
     Harris-Foulkes estimate   =    -318.89093233 Ry
     estimated scf accuracy    <       0.00000292 Ry

     iteration #  6     ecut=   100.00 Ry     beta= 0.10
     Davidson diagonalization with overlap
     ethr =  4.57E-09,  avg # of iterations =  1.0

     negative rho (up, down):  1.367E-04 0.000E+00

     total cpu time spent up to now is      433.3 secs

     total energy              =    -318.89093159 Ry
     Harris-Foulkes estimate   =    -318.89093216 Ry
     estimated scf accuracy    <       0.00000266 Ry

     iteration #  7     ecut=   100.00 Ry     beta= 0.10
     Davidson diagonalization with overlap
     ethr =  4.16E-09,  avg # of iterations =  1.0

     negative rho (up, down):  1.384E-04 0.000E+00

     total cpu time spent up to now is      454.0 secs

     total energy              =    -318.89093109 Ry
     Harris-Foulkes estimate   =    -318.89093169 Ry
     estimated scf accuracy    <       0.00000090 Ry

     iteration #  8     ecut=   100.00 Ry     beta= 0.10
     Davidson diagonalization with overlap
     ethr =  1.41E-09,  avg # of iterations =  1.9

     negative rho (up, down):  1.382E-04 0.000E+00

     total cpu time spent up to now is      476.3 secs

     total energy              =    -318.89093137 Ry
     Harris-Foulkes estimate   =    -318.89093141 Ry
     estimated scf accuracy    <       0.00000014 Ry

     iteration #  9     ecut=   100.00 Ry     beta= 0.10
     Davidson diagonalization with overlap
     ethr =  2.25E-10,  avg # of iterations =  1.6

     negative rho (up, down):  1.384E-04 0.000E+00

     total cpu time spent up to now is      497.9 secs

     End of self-consistent calculation

          k = 0.0000 0.0000 0.0000 ( 15205 PWs)   bands (ev):

   -12.4132 -11.9226  -9.1526  -9.1525  -9.1525  -9.0279  -9.0278  -9.0278
    -3.4462  -3.4462  -3.4462  -3.3377  -3.3377  -3.3376  -1.0756   1.2996
     1.2996   1.2996   1.4226   1.4226   1.4226   1.8622   3.7692   3.7697
     3.7697   4.1276   4.1285   4.2014   4.2023   5.2056   5.2059   5.2059
     9.6678   9.6678   9.6678  11.2458  11.4772  11.4772  11.4779  15.0975
    15.0975  15.0979  15.3556  15.3556  15.3563  16.5528  17.0089  17.0108
    17.2243  17.2262  17.9291  18.4638  18.5482  18.5482  18.5482  19.6804
    19.6806  19.6806  20.6802  20.9649  20.9649  20.9650  23.4665  25.8272
    25.8276  25.8276  26.8245  26.8245  26.8253  27.0925  27.0925  27.0930
    27.2381  27.2385  27.2385  27.3778  27.3778  27.3783  27.7630  27.7646
    27.7646  29.5085  29.5087  29.5087  30.4771  30.5103  31.9089  32.7644
    32.7644  32.7651  33.3580  33.3587  33.3587  33.4073  33.4077  34.1241
    34.1241  34.1247  34.3203  34.3203  34.3211  34.8229  34.8229  34.8236
    36.3261  36.3271  36.7313  37.2004  37.2004  37.2011  37.8316  38.6745
    38.6746  40.0245  40.0252  40.0252  40.8601  40.8606  42.0834  42.0844

          k =-0.0000 0.0000 0.2694 ( 15325 PWs)   bands (ev):

   -12.2995 -12.0549  -9.1207  -9.1207  -9.1207  -9.0583  -9.0583  -9.0583
    -3.4325  -3.4325  -3.4325  -3.3780  -3.3780  -3.3779  -0.4649   0.9614
     1.3300   1.3300   1.3300   1.3915   1.3915   1.3915   4.1460   4.1468
     4.1603   4.1608   4.1608   4.1828   4.1837   4.9012   4.9016   4.9016
     9.8275   9.8275   9.8277  10.7378  10.7378  10.7383  12.6601  15.2366
    15.3690  15.3690  15.3695  15.4269  15.4269  15.4276  17.0609  17.0628
    17.1685  17.1704  18.1746  18.3852  19.1878  19.1878  19.1878  19.5343
    19.5345  19.5345  21.0769  22.1650  22.1651  22.1651  22.2963  24.5632
    24.5637  24.5637  26.4756  26.4762  26.4762  26.7264  26.7267  26.7267
    26.9854  26.9854  26.9860  27.0697  27.0697  27.0702  27.9602  27.9602
    27.9609  30.0182  30.0182  30.0189  30.6048  30.8129  30.9171  30.9182
    30.9182  32.4003  32.4014  32.4014  33.0784  34.1238  34.1241  34.4654
    34.4654  34.4662  34.6538  34.6539  34.6547  35.5235  36.1922  36.1925
    37.0993  37.1003  37.7630  37.7630  37.7634  38.4679  38.4679  38.4684
    39.2753  39.2764  40.0342  41.0495  41.0495  41.0496  41.4327  41.4327

          k = 0.0000 0.1921 0.0000 ( 15258 PWs)   bands (ev):

   -12.2763 -11.7927  -9.5774  -9.3310  -9.2043  -9.2042  -9.0381  -9.0381
    -3.2238  -3.2238  -3.0978  -3.0977  -2.8773  -2.7298  -0.8881   0.9410
     0.9410   1.0716   1.0716   1.4430   1.5644   2.0252   3.0375   3.5667
     3.6403   3.6710   3.6715   3.8654   3.9466   4.9654   5.2268   5.2271
     9.9298   9.9298  10.4058  11.4973  11.5933  11.5939  12.1099  14.8083
    15.4330  15.5164  15.5167  15.9589  15.9596  16.3812  16.8565  17.1514
    17.6037  17.8121  17.8132  17.9333  18.4036  18.4037  18.4115  19.9699
    19.9701  20.1325  20.1327  20.6342  21.1043  21.1405  23.2358  25.6605
    25.6609  25.8930  25.8936  25.9572  26.1737  26.4080  26.6206  26.7753
    26.7754  27.0415  27.2723  27.2727  27.5992  27.5998  27.6777  28.2547
    28.2553  28.5011  28.5012  29.5614  30.8103  30.9137  31.6958  31.9188
    31.9194  32.0050  32.0635  32.9762  33.2461  33.2467  33.2770  34.3214
    34.5368  34.6621  34.6626  34.8737  34.8745  35.1207  35.2647  35.5623
    35.5629  36.2326  37.5417  37.6739  38.1074  38.1155  38.1157  38.3932
    38.7132  39.2022  39.5046  40.2925  40.2927  41.3048  41.6108  41.6110

          k = 0.0000 0.1921 0.2694 ( 15268 PWs)   bands (ev):

   -12.1640 -11.9230  -9.5173  -9.3942  -9.1627  -9.1627  -9.0796  -9.0796
    -3.2046  -3.2046  -3.1413  -3.1413  -2.8525  -2.7782  -0.2832   0.9711
     0.9712   1.0368   1.0368   1.1300   1.4729   1.5337   3.5029   3.5889
     3.6290   3.8856   3.9262   4.0826   4.0831   4.4720   4.8788   4.8792
    10.0755  10.0757  10.5907  10.9169  10.9174  11.4464  12.8679  15.2833
    15.3128  15.4915  15.9035  15.9040  16.0221  16.0228  16.9553  17.0995
    17.6541  17.7587  18.0451  18.2806  18.4468  18.8657  18.8657  19.4065
    19.4065  19.7744  21.3781  21.7997  21.8000  22.2744  22.5641  24.4201
    24.4206  24.6897  25.3529  25.3530  25.9320  25.9323  26.1832  26.2550
    26.2879  26.5256  27.0089  27.0093  27.1685  27.1691  27.9393  28.5063
    28.5066  29.3636  29.3639  30.1604  30.8201  30.8341  31.0126  32.2687
    32.2691  32.2981  32.6248  32.8058  32.8972  32.8981  33.0313  34.2713
    34.2722  34.6166  34.6681  34.7522  34.7530  34.9199  34.9481  36.0663
    36.5467  36.5474  37.4932  38.0487  38.7321  38.8327  39.7928  39.7929
    40.1365  40.1367  40.5645  40.8116  40.9668  41.6458  41.9888  41.9982

          k = 0.0000 0.3843 0.0000 ( 15310 PWs)   bands (ev):

   -11.8726 -11.4109 -10.4075 -10.0495  -9.2916  -9.2916  -9.0698  -9.0698
    -2.6339  -2.6338  -2.5025  -2.5025  -1.4577  -1.3025  -0.3323   0.1180
     0.1181   0.2531   0.2531   1.7511   1.8574   1.9741   2.1437   2.2353
     2.5028   3.2273   3.3230   3.5000   3.5003   4.1691   5.2457   5.2459
    10.5485  10.5485  11.8060  11.8064  12.1395  12.2172  13.4684  14.0061
    15.6581  15.7858  16.1693  16.1694  16.4444  16.5160  17.1139  17.2735
    17.4814  17.4821  18.3870  18.3871  18.8552  18.8555  19.2150  19.4111
    19.5280  20.5538  20.5542  21.3118  21.4918  22.2837  22.6803  23.8225
    23.8231  24.0012  24.1871  25.1272  25.1274  25.2869  25.8541  25.8542
    26.3839  27.0811  27.0811  27.1104  27.1105  27.6912  27.9787  28.3443
    28.3445  29.1106  29.3612  29.3616  30.0092  30.1410  30.1416  30.2527
    30.7966  31.7345  32.9886  33.0076  33.1063  33.1065  33.1074  33.6082
    34.1459  34.1462  34.9049  34.9303  35.9296  36.0549  36.1867  36.5036
    36.8913  37.3980  37.5949  37.5956  38.0619  38.0624  38.4451  38.4455
    39.8620  40.1536  41.2234  41.7864  41.8120  41.8123  43.1009  43.1013

          k = 0.0000 0.3843 0.2694 ( 15286 PWs)   bands (ev):

   -11.7650 -11.5348 -10.3225 -10.1437  -9.2373  -9.2373  -9.1264  -9.1264
    -2.6105  -2.6105  -2.5446  -2.5445  -1.4320  -1.3527   0.1454   0.1454
     0.2134   0.2134   0.2500   1.5909   1.8862   1.9446   2.1829   2.2691
     2.2937   3.2510   3.2988   3.4851   3.9430   3.9432   4.8266   4.8268
    10.6298  10.6299  11.2831  11.2834  12.2712  12.9257  13.3349  15.1368
    15.1477  15.6873  16.5680  16.6695  17.0011  17.0014  17.3053  17.4908
    17.4914  17.6600  18.4233  18.4234  18.5892  18.9599  18.9600  19.2613
    19.3592  19.5483  21.2347  21.2351  22.2870  22.4198  22.9722  22.9726
    23.0733  24.0334  24.1230  24.6058  24.6060  24.6519  25.0619  25.0620
    25.9824  26.2639  26.2641  26.6826  27.2226  27.2230  28.4935  28.8725
    29.0173  29.0174  29.2568  29.2568  29.9872  30.7298  31.0131  31.6241
    31.9172  31.9173  32.4659  32.7301  33.0266  33.0270  33.1122  33.2007
    34.4564  34.7751  34.7755  35.0224  35.4447  35.9015  36.6784  36.6789
    37.3297  37.3304  38.1815  38.4904  38.7705  38.7739  38.7742  40.3785
    40.3789  40.5332  40.8145  41.0891  41.3736  41.6776  41.9402  42.7053

          k =-0.0000-0.5764-0.0000 ( 15310 PWs)   bands (ev):

   -11.2281 -11.2281 -10.8055 -10.8055  -9.3307  -9.3307  -9.0880  -9.0880
    -2.1327  -2.1327  -2.0868  -2.0868  -0.4222  -0.4222  -0.3353  -0.3353
     0.3373   0.3373   0.4636   0.4636   0.5679   0.5679   2.4898   2.4898
     2.5979   2.5979   3.2534   3.2534   3.4239   3.4239   5.2472   5.2472
    10.9410  10.9410  11.8816  11.8816  13.0214  13.0214  14.3422  14.3422
    14.9058  14.9058  16.0105  16.0105  16.3384  16.3384  17.1182  17.1182
    17.6665  17.6665  18.9823  18.9823  19.2919  19.2919  20.5166  20.5166
    20.7396  20.7396  21.4846  21.4846  21.6678  21.6678  22.0482  22.0482
    22.2677  22.2678  23.7493  23.7493  24.7847  24.7848  25.5838  25.5838
    26.8167  26.8167  26.9980  26.9980  27.3283  27.3283  27.9926  27.9926
    28.7678  28.7678  29.3872  29.3872  29.6610  29.6610  29.9103  29.9103
    31.1993  31.1993  32.4901  32.4901  33.0691  33.0691  33.8730  33.8730
    34.6477  34.6477  34.8954  34.8954  35.1847  35.1848  35.9606  35.9606
    36.7580  36.7580  38.2990  38.2990  40.3866  40.3866  40.5387  40.5387
    40.8884  40.8884  41.6284  41.6284  42.2634  42.2634  42.5634  42.5635

          k =-0.0000-0.5764 0.2694 ( 15304 PWs)   bands (ev):

   -11.1289 -11.1289 -10.9181 -10.9181  -9.2717  -9.2717  -9.1504  -9.1504
    -2.1260  -2.1260  -2.1042  -2.1042  -0.4110  -0.4110  -0.3675  -0.3675
     0.3243   0.3243   0.4108   0.4109   1.1862   1.1862   2.4769   2.4769
     2.5165   2.5165   2.5706   2.5706   3.8793   3.8793   4.7985   4.7985
    10.9536  10.9536  11.4656  11.4656  13.5557  13.5557  14.3245  14.3246
    15.4023  15.4024  16.0446  16.0447  17.2778  17.2779  17.3721  17.3721
    17.9038  17.9038  18.9428  18.9428  19.0623  19.0623  19.2615  19.2615
    20.7614  20.7614  21.5253  21.5253  21.6165  21.6165  21.6879  21.6879
    22.8672  22.8674  23.5436  23.5437  23.9007  23.9007  24.7735  24.7735
    26.2749  26.2749  26.9569  26.9571  27.3608  27.3608  27.9708  27.9710
    28.9432  28.9432  29.2586  29.2586  29.5436  29.5436  31.5976  31.5976
    31.7586  31.7587  32.6555  32.6556  32.9429  32.9429  33.0935  33.0935
    34.4232  34.4232  35.2678  35.2679  35.4842  35.4843  37.8470  37.8472
    37.9275  37.9275  39.2512  39.2512  39.8284  39.8285  40.1039  40.1039
    40.2881  40.2881  40.8035  40.8037  41.3095  41.3095  41.5800  41.5801

          k = 0.1664 0.2882 0.0000 ( 15283 PWs)   bands (ev):

   -12.0059 -11.5368  -9.8945  -9.8945  -9.5908  -9.5908  -8.9006  -8.7930
    -3.1401  -3.0088  -2.1924  -2.1924  -2.0416  -2.0416  -0.5164  -0.0576
     0.0844   1.2334   1.2334   1.3593   1.3593   2.3457   2.5257   2.5257
     2.6527   2.7128   3.3538   3.4345   4.2280   4.6996   4.6996   5.4132
     9.9566  11.2444  11.2444  11.2478  11.9499  12.6553  12.6553  14.8081
    14.8081  16.0058  16.1120  16.1120  16.8330  16.9220  16.9657  17.1838
    17.3997  17.8251  17.8252  18.0464  18.0623  18.7024  18.8152  19.5788
    20.4041  20.4041  20.4752  20.8907  20.8907  21.9867  22.8275  24.2082
    24.2082  24.7650  25.0514  25.3518  25.3518  25.8682  25.8682  26.4424
    26.6776  26.8312  26.8312  27.6539  27.6539  27.6963  27.8946  27.8946
    28.0184  28.6765  29.1343  29.1343  29.2681  30.4257  31.2032  31.2535
    31.2584  31.8337  31.8337  32.5811  33.0690  33.4953  33.5484  33.5484
    33.7978  34.9525  34.9525  35.6627  35.6627  35.7926  36.2819  36.2819
    36.6024  37.3997  37.4609  37.6253  37.6253  37.8147  37.8535  38.2789
    39.1809  40.3337  40.3337  40.5408  40.7538  42.9151  43.0409  43.3374

          k = 0.1664 0.2882 0.2694 ( 15280 PWs)   bands (ev):

   -11.8967 -11.6628  -9.8216  -9.8216  -9.6698  -9.6698  -8.8731  -8.8192
    -3.1179  -3.0522  -2.1659  -2.1659  -2.0897  -2.0897  -0.0280   0.0435
     0.0751   1.2615   1.2615   1.3250   1.3250   1.4539   2.6789   2.7241
     3.0317   3.0317   3.3739   3.4137   4.1122   4.1122   4.5843   5.2015
     9.9944  10.6601  11.3771  11.3772  12.0986  12.0986  13.2174  15.2506
    15.7047  15.7048  16.1461  16.1461  16.9918  17.1330  17.2637  17.2943
    17.4443  17.8848  18.1503  18.1503  18.2848  18.7184  18.9170  19.0709
    19.4814  19.4815  21.4169  22.0425  22.1398  22.1400  22.3629  23.4501
    23.7667  23.7668  24.9550  25.0860  25.0861  25.3268  25.3268  25.6835
    26.0489  26.0492  26.4910  26.4911  26.5710  26.6963  28.7683  28.8443
    28.8443  28.8604  29.1721  29.7000  29.7001  30.3948  31.7966  32.1002
    32.2261  32.3935  32.3938  32.9706  32.9859  33.0721  33.2871  33.2873
    34.0773  34.7091  34.7091  35.0775  35.3383  35.3383  36.3098  36.3729
    37.1173  37.3269  37.3269  37.6851  38.3971  39.4690  39.4691  40.3045
    40.3319  40.6238  40.6238  40.7517  40.7591  42.0432  42.0432  42.7029

          k = 0.1664 0.4803 0.0000 ( 15301 PWs)   bands (ev):

   -11.4806 -11.0416 -10.7422 -10.3538 -10.0722  -9.7405  -8.7597  -8.6449
    -2.7035  -2.5477  -1.4234  -1.3331  -1.0437  -0.9356  -0.5909  -0.4625
     0.2129   0.6515   0.7660   1.1504   1.2352   1.2608   1.7921   1.9075
     2.2471   2.5511   2.6491   2.9619   3.8056   4.5104   4.5365   5.5347
    10.2840  11.0488  12.0291  12.7433  12.9700  13.2191  13.7543  14.0415
    14.9267  15.1210  15.3766  16.3943  16.6957  16.7378  17.4338  17.5877
    17.6806  17.7030  18.7793  18.9215  19.0304  19.2800  19.3888  19.8475
    20.1826  20.3799  21.1967  21.4781  21.6323  22.0138  22.1050  22.1354
    23.4883  23.4883  23.5601  23.9050  25.1194  25.2820  25.3973  25.9682
    26.1980  26.2861  26.6524  27.0331  27.0411  27.1891  27.6829  28.4533
    28.4793  28.6956  29.1396  29.6006  29.8197  29.8960  30.1546  30.3027
    30.3740  31.6633  31.6779  31.8106  33.0987  33.1133  33.4609  34.1127
    34.1865  34.9836  35.5375  35.6265  36.0994  36.2208  36.3704  36.4037
    36.9923  37.0723  37.2871  37.9576  38.4801  39.3661  39.9741  40.6137
    40.9763  41.1409  41.4703  41.9993  42.2970  42.4685  42.5068  42.5187

          k = 0.1664 0.4803 0.2694 ( 15285 PWs)   bands (ev):

   -11.3779 -11.1589 -10.6505 -10.4566  -9.9930  -9.8274  -8.7307  -8.6733
    -2.6702  -2.5928  -1.4102  -1.3640  -1.0277  -0.9731  -0.5753  -0.5073
     0.6722   0.7208   0.7293   1.1719   1.2494   1.7649   1.8490   1.9087
     2.1723   2.5819   2.6277   2.7756   3.0798   3.9077   4.8416   5.3765
    10.1904  10.6030  12.0402  12.5662  13.0512  13.5839  13.6418  14.7596
    15.4028  15.9772  16.2878  16.3941  16.7715  17.2385  17.4002  17.6371
    17.6679  18.2496  18.3456  18.5127  18.8209  18.9177  19.1067  19.2292
    20.1804  20.4724  20.7189  21.7172  21.7601  21.8682  22.0383  22.5777
    22.9027  23.3650  23.9663  24.3158  24.3999  24.7210  24.9746  25.1447
    25.6560  25.8568  25.9795  26.4486  26.4914  26.7999  26.9232  28.2100
    28.2847  28.6444  29.4797  29.6822  29.9216  30.5249  30.8568  31.5712
    31.6168  32.0978  32.9006  33.0216  33.0650  33.3147  33.4889  33.8070
    33.8829  35.1710  35.3409  35.8209  36.1264  36.2104  36.8943  37.0981
    37.9236  38.0014  38.2418  38.7553  39.1801  39.3743  39.5657  39.9151
    39.9995  40.0320  40.9182  41.2577  41.2921  41.5271  42.0169  42.4759

          k = 0.3328 0.5764 0.0000 ( 15303 PWs)   bands (ev):

   -10.8577 -10.8577 -10.8576 -10.4595 -10.4595 -10.4595  -8.5088  -8.5087
    -2.5476  -2.2736  -1.6736  -1.6736  -0.0457  -0.0454  -0.0454  -0.0005
    -0.0002  -0.0002   1.0935   1.0935   1.0937   1.5302   1.5302   1.5305
     1.6269   1.6269   1.6274   3.6778   3.6778   3.6780   5.2837   5.2841
    10.4933  10.4937  13.7167  13.7168  13.7168  13.7463  13.7466  13.7466
    14.1860  14.1862  14.1862  16.0359  17.6114  17.6114  17.6122  18.2026
    18.2026  18.2032  18.7991  18.7995  18.9191  18.9204  18.9204  19.6491
    20.7628  20.7648  20.7648  20.8499  20.8499  20.8503  23.4207  23.5846
    23.5850  23.5865  23.5866  23.5866  23.7841  25.3926  25.3926  25.3936
    26.0808  26.0812  26.1030  26.1033  26.1033  28.1518  28.1518  28.1523
    28.4883  28.4886  28.9101  29.7836  29.7836  29.7837  30.2651  30.2651
    30.2657  31.0555  31.0556  31.0556  33.1459  33.2273  34.0221  34.0221
    34.0225  35.8331  35.8331  35.8337  36.2937  36.2937  36.2937  37.6273
    37.6280  37.6280  38.3697  38.3700  38.3700  39.7685  39.7698  39.7698
    40.3616  40.3622  41.5691  41.8749  41.8758  41.8758  43.1352  43.2054

          k = 0.3328 0.5764 0.2694 ( 15264 PWs)   bands (ev):

   -10.7639 -10.7639 -10.7638 -10.5651 -10.5651 -10.5651  -8.5079  -8.5079
    -2.4813  -2.3443  -1.6883  -1.6883  -0.0550  -0.0546  -0.0546  -0.0242
    -0.0239  -0.0239   1.5405   1.5405   1.5409   1.5444   1.5444   1.5448
     1.7337   1.7337   1.7339   2.9428   2.9428   2.9430   5.4149   5.4151
    10.1855  10.1857  13.3671  13.3673  13.3673  13.8540  13.8542  13.8542
    15.6586  15.6588  15.6588  16.7092  17.7537  17.7537  17.7546  17.8541
    17.8543  17.8543  18.2654  18.2654  18.2657  18.4134  19.4055  19.4057
    20.7393  20.7411  20.7411  20.7999  20.8007  20.8007  23.5366  23.5369
    23.5721  23.7253  24.0104  24.0104  24.0105  25.1547  25.1547  25.1555
    25.4610  25.4610  25.4612  25.7995  25.7998  26.1626  26.1626  26.1630
    28.0391  28.0393  30.4251  30.4251  30.4253  30.5948  30.5948  30.5949
    31.1446  32.9007  32.9007  32.9012  33.1700  33.2067  34.1288  34.1288
    34.1292  36.2386  36.2390  36.2390  36.2961  37.0843  37.0846  37.0846
    38.5175  38.5178  38.5178  38.7043  38.7053  38.7053  39.7610  39.7610
    39.7610  40.3156  40.3161  40.3161  40.7326  40.7329  42.3205  42.3206

          k =-0.1664 0.0961 0.0000 ( 15258 PWs)   bands (ev):

   -12.2763 -11.7927  -9.5775  -9.3310  -9.2042  -9.2042  -9.0380  -9.0380
    -3.2238  -3.2238  -3.0978  -3.0978  -2.8773  -2.7297  -0.8881   0.9410
     0.9410   1.0717   1.0717   1.4429   1.5644   2.0252   3.0371   3.5673
     3.6409   3.6715   3.6715   3.8649   3.9461   4.9652   5.2271   5.2271
     9.9297   9.9297  10.4058  11.4973  11.5932  11.5932  12.1105  14.8086
    15.4337  15.5164  15.5164  15.9589  15.9589  16.3812  16.8559  17.1504
    17.6050  17.8122  17.8145  17.9333  18.4037  18.4037  18.4108  19.9700
    19.9700  20.1326  20.1326  20.6340  21.1044  21.1402  23.2358  25.6608
    25.6608  25.8928  25.8928  25.9568  26.1743  26.4085  26.6199  26.7753
    26.7753  27.0423  27.2729  27.2729  27.5991  27.5991  27.6764  28.2555
    28.2555  28.5014  28.5014  29.5612  30.8102  30.9136  31.6952  31.9190
    31.9190  32.0049  32.0640  32.9768  33.2468  33.2468  33.2764  34.3220
    34.5375  34.6620  34.6620  34.8737  34.8737  35.1207  35.2652  35.5622
    35.5622  36.2323  37.5420  37.6742  38.1079  38.1158  38.1158  38.3925
    38.7140  39.2027  39.5043  40.2925  40.2925  41.3040  41.6111  41.6111

          k =-0.1664 0.0961 0.2694 ( 15268 PWs)   bands (ev):

   -12.1640 -11.9230  -9.5174  -9.3942  -9.1627  -9.1627  -9.0796  -9.0796
    -3.2046  -3.2046  -3.1413  -3.1413  -2.8525  -2.7781  -0.2832   0.9712
     0.9712   1.0368   1.0368   1.1299   1.4729   1.5336   3.5025   3.5894
     3.6296   3.8850   3.9256   4.0831   4.0831   4.4716   4.8792   4.8792
    10.0755  10.0755  10.5909  10.9169  10.9169  11.4469  12.8679  15.2834
    15.3133  15.4921  15.9035  15.9035  16.0221  16.0221  16.9545  17.0986
    17.6554  17.7601  18.0449  18.2802  18.4467  18.8658  18.8658  19.4066
    19.4066  19.7743  21.3780  21.7998  21.7998  22.2743  22.5641  24.4206
    24.4206  24.6891  25.3530  25.3530  25.9318  25.9318  26.1839  26.2555
    26.2872  26.5253  27.0085  27.0085  27.1690  27.1690  27.9402  28.5064
[...]
    22.7291  23.8603  23.9417  24.1092  24.1092  24.2469  24.4440  24.4440
    25.4994  25.9531  25.9531  26.2091  26.8342  26.8342  28.3628  28.5380
    28.5380  28.5395  28.7769  28.7769  29.6107  30.4632  30.8941  30.9874
    31.4641  31.4641  32.0677  32.4172  32.5200  32.7556  32.7556  32.9478
    33.6625  34.3773  34.3773  34.7215  35.0138  35.3772  36.2001  36.2001
    36.8361  36.8361  37.4829  37.5603  37.9221  37.9221  38.1753  39.2584
    39.2584  39.7810  40.0211  40.5489  40.6944  40.7469  41.7861  41.7861

          k = 0.4997-0.2885-0.0000 ( 15714 PWs)   bands (ev):

   -11.4392 -11.4392 -11.0792 -11.0792  -9.5489  -9.5489  -9.3433  -9.3433
    -2.3680  -2.3680  -2.3255  -2.3254  -0.6508  -0.6508  -0.5776  -0.5776
     0.1186   0.1186   0.2198   0.2198   0.4414   0.4414   2.2688   2.2688
     2.3572   2.3572   2.8672   2.8672   3.2890   3.2891   4.9337   4.9338
    10.7553  10.7553  11.5624  11.5624  12.6405  12.6405  14.1314  14.1314
    14.6244  14.6244  15.8367  15.8367  15.9991  15.9991  16.8485  16.8485
    17.4922  17.4922  18.8120  18.8120  19.0893  19.0893  20.2865  20.2865
    20.5082  20.5082  21.3092  21.3092  21.4496  21.4496  21.4675  21.4675
    21.9807  21.9807  23.4199  23.4199  24.1640  24.1640  25.2941  25.2941
    26.0142  26.0142  26.5932  26.5932  26.8552  26.8552  27.4325  27.4325
    28.6913  28.6913  28.7578  28.7578  29.3045  29.3045  29.3306  29.3307
    30.5584  30.5584  31.8609  31.8609  32.8356  32.8356  33.6466  33.6466
    34.1223  34.1223  34.3155  34.3155  34.9168  34.9168  35.6517  35.6517
    36.2969  36.2969  37.2025  37.2025  39.7225  39.7225  40.2551  40.2551
    40.3418  40.3418  41.2835  41.2835  41.4059  41.4059  41.4655  41.4655

          k = 0.4997-0.2885 0.2635 ( 15678 PWs)   bands (ev):

   -11.3540 -11.3540 -11.1743 -11.1743  -9.4987  -9.4987  -9.3960  -9.3960
    -2.3610  -2.3610  -2.3405  -2.3405  -0.6401  -0.6401  -0.6036  -0.6036
     0.1098   0.1099   0.1772   0.1772   0.9961   0.9961   2.1687   2.1687
     2.2907   2.2907   2.3349   2.3349   3.6956   3.6956   4.5227   4.5227
    10.7697  10.7697  11.2075  11.2075  13.2322  13.2323  14.0120  14.0121
    15.1425  15.1430  15.8466  15.8466  16.9729  16.9729  16.9994  16.9994
    17.6769  17.6769  18.6167  18.6167  18.7632  18.7632  19.0191  19.0191
    20.5209  20.5209  21.3447  21.3448  21.4038  21.4038  21.4236  21.4236
    22.4651  22.4658  23.1955  23.1960  23.4075  23.4075  24.1764  24.1764
    25.8763  25.8763  26.5665  26.5673  26.9633  26.9633  27.5366  27.5377
    28.4202  28.4202  28.7097  28.7097  29.4187  29.4189  31.1116  31.1116
    31.4986  31.4988  32.0619  32.0634  32.6068  32.6082  32.6853  32.6853
    34.0518  34.0518  34.8655  34.8658  34.9983  34.9987  36.9550  36.9556
    37.0021  37.0021  38.3902  38.3902  39.2329  39.2334  39.5034  39.5034
    39.7083  39.7083  39.8389  39.8395  40.6525  40.6525  40.8919  40.8919

          k =-0.1666 0.2885 0.0000 ( 15679 PWs)   bands (ev):

   -12.2157 -11.8152 -10.1102 -10.1101  -9.8524  -9.8524  -9.1268  -9.0364
    -3.3707  -3.2591  -2.4158  -2.4158  -2.2911  -2.2911  -0.6431  -0.2796
    -0.1626   1.0114   1.0115   1.1147   1.1148   1.9453   2.3957   2.3959
     2.4329   2.4778   3.1320   3.1978   4.0824   4.3554   4.3555   5.1508
     9.7369  10.9176  11.0758  11.0759  11.5456  12.3282  12.3285  14.4952
    14.4953  15.6121  15.9466  15.9469  16.5837  16.7441  16.7944  16.9617
    17.2357  17.5077  17.5077  17.8559  17.8722  18.4808  18.4963  19.3521
    20.1148  20.1149  20.1519  20.6480  20.6481  21.6655  22.1325  23.9546
    23.9549  24.1327  24.8173  25.1449  25.1453  25.1693  25.1694  26.0385
    26.3877  26.4874  26.4877  26.8900  27.1865  27.1866  27.3578  27.3582
    27.5564  28.1761  28.6999  28.6999  29.0704  30.0300  30.0351  30.9963
    31.0986  31.4100  31.4100  32.3058  32.8645  33.1395  33.1397  33.2561
    33.2696  34.3884  34.3888  35.4016  35.4019  35.6255  35.6921  35.6924
    36.2006  36.7622  36.7626  37.0493  37.0544  37.2099  37.3287  37.6559
    38.0648  39.6659  39.8501  39.8504  40.3340  41.8020  42.3599  42.3601

          k =-0.1666 0.2885 0.2635 ( 15682 PWs)   bands (ev):

   -12.1216 -11.9218 -10.0479 -10.0479  -9.9191  -9.9191  -9.1038  -9.0585
    -3.3506  -3.2948  -2.3929  -2.3929  -2.3301  -2.3300  -0.2547  -0.1959
    -0.1052   1.0347   1.0348   1.0867   1.0868   1.1475   2.4536   2.4874
     2.8503   2.8505   3.1485   3.1810   3.8243   3.8244   4.3952   4.9469
     9.7966  10.4005  11.1958  11.1958  11.8333  11.8336  12.7586  14.8099
    15.4075  15.4077  15.9522  15.9524  16.8023  16.9199  17.0507  17.0615
    17.2606  17.6559  17.7886  17.7887  18.0566  18.4971  18.5889  18.8158
    19.1067  19.1067  21.0491  21.6858  21.8457  21.8463  21.8471  23.0843
    23.4345  23.4358  24.3010  24.5820  24.5835  24.9524  24.9530  25.1260
    25.6979  25.6984  26.1942  26.1942  26.3307  26.3338  28.2832  28.3959
    28.5242  28.5251  28.8766  29.2409  29.2415  30.0949  31.5404  31.6500
    31.7714  31.9317  31.9337  32.5030  32.7626  32.8282  32.8311  32.8335
    33.6903  34.3513  34.3513  34.6171  34.9017  34.9023  35.7019  35.8635
    36.6283  36.7490  36.7490  37.1636  37.5588  38.4460  38.4469  39.6408
    39.6995  39.7357  39.7372  39.7623  40.4616  41.3623  41.3625  41.8180

          k = 0.3331-0.0000 0.2635 ( 15682 PWs)   bands (ev):

   -12.1216 -11.9218 -10.0479 -10.0479  -9.9191  -9.9191  -9.1038  -9.0585
    -3.3506  -3.2948  -2.3929  -2.3929  -2.3300  -2.3300  -0.2547  -0.1959
    -0.1052   1.0347   1.0348   1.0867   1.0868   1.1475   2.4536   2.4874
     2.8503   2.8504   3.1485   3.1810   3.8243   3.8244   4.3952   4.9469
     9.7966  10.4005  11.1957  11.1959  11.8334  11.8335  12.7586  14.8099
    15.4076  15.4076  15.9522  15.9525  16.8023  16.9199  17.0507  17.0615
    17.2606  17.6559  17.7886  17.7887  18.0566  18.4971  18.5889  18.8158
    19.1066  19.1068  21.0491  21.6858  21.8457  21.8463  21.8471  23.0843
    23.4346  23.4357  24.3010  24.5819  24.5836  24.9525  24.9529  25.1260
    25.6980  25.6984  26.1940  26.1943  26.3307  26.3338  28.2832  28.3959
    28.5242  28.5252  28.8766  29.2407  29.2417  30.0949  31.5404  31.6500
    31.7714  31.9316  31.9339  32.5030  32.7626  32.8282  32.8314  32.8332
    33.6903  34.3510  34.3516  34.6171  34.9020  34.9020  35.7019  35.8635
    36.6283  36.7488  36.7492  37.1636  37.5588  38.4463  38.4467  39.6408
    39.6995  39.7357  39.7371  39.7623  40.4616  41.3623  41.3624  41.8180

          k =-0.3331 0.3846 0.0000 ( 15678 PWs)   bands (ev):

   -11.6912 -11.3170 -10.9543 -10.6239 -10.2864 -10.0047  -8.9852  -8.8883
    -2.9325  -2.7995  -1.6497  -1.5759  -1.2695  -1.1801  -0.8115  -0.7076
     0.0863   0.4273   0.5223   0.9303   0.9962   1.1339   1.5705   1.6651
     2.1183   2.3291   2.4095   2.5706   3.4307   4.1828   4.3592   5.2860
    10.0496  10.7342  11.8657  12.3472  12.6516  13.0499  13.3852  13.7300
    14.5659  14.8055  15.1864  16.2242  16.5420  16.5623  17.1950  17.3145
    17.4147  17.5149  18.5263  18.7292  18.8249  19.0348  19.1491  19.6524
    19.9486  20.1756  20.7742  21.2644  21.3735  21.5035  21.7373  21.8932
    23.1818  23.2774  23.2892  23.3198  24.8909  24.9869  25.1293  25.2500
    25.6106  25.8381  26.0075  26.5496  26.7147  26.8185  26.8889  27.8795
    28.0026  28.0883  28.4801  29.1755  29.3821  29.4832  29.6370  29.7880
    29.8678  31.2417  31.2744  31.3131  32.9264  32.9394  33.0512  33.5781
    33.5876  34.6254  35.0703  35.2735  35.5276  35.9148  35.9474  36.0902
    36.4018  36.5326  36.6907  37.4909  38.0444  38.1872  39.3421  39.9889
    40.2046  40.3003  40.9909  41.3975  41.4911  41.6582  41.7381  41.8407

          k = 0.4997 0.0962-0.0000 ( 15678 PWs)   bands (ev):

   -11.6912 -11.3170 -10.9543 -10.6240 -10.2864 -10.0047  -8.9852  -8.8883
    -2.9325  -2.7995  -1.6498  -1.5760  -1.2695  -1.1801  -0.8114  -0.7075
     0.0863   0.4274   0.5224   0.9303   0.9963   1.1338   1.5703   1.6650
     2.1184   2.3291   2.4094   2.5706   3.4307   4.1829   4.3593   5.2860
    10.0496  10.7341  11.8656  12.3472  12.6514  13.0500  13.3853  13.7302
    14.5658  14.8055  15.1864  16.2244  16.5420  16.5625  17.1950  17.3145
    17.4148  17.5148  18.5264  18.7292  18.8247  19.0348  19.1492  19.6522
    19.9487  20.1757  20.7741  21.2645  21.3736  21.5036  21.7367  21.8938
    23.1818  23.2775  23.2894  23.3194  24.8906  24.9865  25.1289  25.2501
    25.6106  25.8384  26.0075  26.5499  26.7151  26.8185  26.8889  27.8799
    28.0025  28.0879  28.4801  29.1755  29.3821  29.4833  29.6369  29.7881
    29.8677  31.2415  31.2745  31.3130  32.9265  32.9394  33.0515  33.5781
    33.5876  34.6255  35.0707  35.2735  35.5273  35.9149  35.9475  36.0903
    36.4021  36.5329  36.6907  37.4906  38.0441  38.1874  39.3422  39.9888
    40.2046  40.3003  40.9912  41.3974  41.4908  41.6585  41.7379  41.8406

          k =-0.3331 0.3846 0.2635 ( 15693 PWs)   bands (ev):

   -11.6029 -11.4161 -10.8757 -10.7108 -10.2188 -10.0781  -8.9608  -8.9123
    -2.9034  -2.8372  -1.6383  -1.6008  -1.2552  -1.2101  -0.7982  -0.7436
     0.4452   0.4926   0.5467   0.9425   1.0181   1.5615   1.6236   1.6920
     1.8633   2.3535   2.3917   2.5933   2.7775   3.6151   4.6487   5.1284
     9.9872  10.3520  11.8586  12.3027  12.8391  13.2490  13.3018  14.4172
    15.0490  15.7375  15.8937  16.1894  16.5713  17.0496  17.1617  17.3690
    17.4155  17.9529  18.0174  18.2847  18.5923  18.6019  18.6927  18.9602
    19.9421  20.1594  20.4809  21.4290  21.4799  21.5934  21.7880  22.2553
    22.5255  23.0423  23.7283  23.8679  23.9095  24.2562  24.6535  24.6628
    25.2197  25.3959  25.6335  25.9706  26.0651  26.4948  26.6085  27.6799
    27.9050  28.0771  28.9461  29.3521  29.4482  30.0820  30.5482  31.0086
    31.1017  31.6100  32.4327  32.7493  32.8320  33.0825  33.1104  33.3557
    33.6434  34.4406  34.9478  35.3776  35.6146  35.8110  35.9044  36.5684
    37.1777  37.3887  37.5856  38.0490  38.5526  38.5925  38.9164  39.0867
    39.2686  39.3129  39.9652  40.3895  40.4708  40.9717  41.3455  42.1281

          k = 0.4997 0.0962 0.2635 ( 15693 PWs)   bands (ev):

   -11.6029 -11.4161 -10.8758 -10.7108 -10.2188 -10.0781  -8.9608  -8.9123
    -2.9035  -2.8372  -1.6384  -1.6009  -1.2551  -1.2101  -0.7981  -0.7435
     0.4453   0.4927   0.5467   0.9425   1.0182   1.5613   1.6235   1.6919
     1.8632   2.3534   2.3916   2.5934   2.7774   3.6152   4.6487   5.1285
     9.9871  10.3519  11.8585  12.3025  12.8392  13.2491  13.3019  14.4172
    15.0492  15.7376  15.8936  16.1896  16.5715  17.0496  17.1616  17.3688
    17.4153  17.9529  18.0172  18.2849  18.5923  18.6021  18.6925  18.9601
    19.9422  20.1595  20.4808  21.4294  21.4794  21.5934  21.7885  22.2554
    22.5255  23.0423  23.7283  23.8675  23.9093  24.2562  24.6534  24.6625
    25.2196  25.3956  25.6335  25.9708  26.0649  26.4950  26.6085  27.6802
    27.9049  28.0771  28.9463  29.3521  29.4482  30.0820  30.5483  31.0086
    31.1018  31.6102  32.4324  32.7492  32.8321  33.0826  33.1106  33.3556
    33.6434  34.4407  34.9481  35.3778  35.6146  35.8109  35.9044  36.5681
    37.1777  37.3884  37.5856  38.0491  38.5528  38.5924  38.9164  39.0867
    39.2686  39.3129  39.9653  40.3895  40.4707  40.9715  41.3456  42.1280

          k =-0.4997-0.0962 0.2635 ( 15693 PWs)   bands (ev):

   -11.6029 -11.4161 -10.8758 -10.7108 -10.2188 -10.0781  -8.9608  -8.9123
    -2.9035  -2.8373  -1.6384  -1.6009  -1.2551  -1.2101  -0.7981  -0.7435
     0.4453   0.4927   0.5467   0.9426   1.0181   1.5614   1.6234   1.6920
     1.8632   2.3534   2.3916   2.5934   2.7775   3.6152   4.6488   5.1285
     9.9871  10.3519  11.8585  12.3025  12.8391  13.2491  13.3018  14.4173
    15.0494  15.7374  15.8935  16.1896  16.5716  17.0497  17.1615  17.3689
    17.4156  17.9528  18.0172  18.2842  18.5924  18.6023  18.6926  18.9601
    19.9421  20.1597  20.4815  21.4287  21.4789  21.5935  21.7890  22.2554
    22.5257  23.0421  23.7281  23.8666  23.9095  24.2559  24.6544  24.6633
    25.2185  25.3961  25.6337  25.9699  26.0656  26.4948  26.6088  27.6802
    27.9043  28.0771  28.9472  29.3511  29.4473  30.0825  30.5492  31.0086
    31.1013  31.6099  32.4347  32.7484  32.8321  33.0826  33.1111  33.3536
    33.6433  34.4421  34.9485  35.3774  35.6134  35.8111  35.9044  36.5671
    37.1770  37.3894  37.5859  38.0487  38.5529  38.5941  38.9150  39.0853
    39.2686  39.3153  39.9674  40.3884  40.4692  40.9716  41.3461  42.1280

          k = 0.3331-0.3846 0.2635 ( 15693 PWs)   bands (ev):

   -11.6029 -11.4161 -10.8757 -10.7108 -10.2188 -10.0781  -8.9608  -8.9123
    -2.9034  -2.8372  -1.6383  -1.6008  -1.2551  -1.2101  -0.7982  -0.7436
     0.4452   0.4926   0.5467   0.9425   1.0181   1.5615   1.6235   1.6921
     1.8633   2.3535   2.3917   2.5933   2.7775   3.6150   4.6487   5.1284
     9.9872  10.3520  11.8587  12.3026  12.8390  13.2491  13.3017  14.4173
    15.0493  15.7373  15.8936  16.1894  16.5715  17.0496  17.1616  17.3690
    17.4158  17.9528  18.0174  18.2840  18.5923  18.6021  18.6927  18.9602
    19.9420  20.1596  20.4816  21.4284  21.4794  21.5935  21.7884  22.2554
    22.5257  23.0421  23.7280  23.8669  23.9097  24.2559  24.6545  24.6636
    25.2186  25.3964  25.6338  25.9697  26.0659  26.4946  26.6088  27.6800
    27.9044  28.0771  28.9469  29.3511  29.4473  30.0826  30.5492  31.0086
    31.1012  31.6096  32.4350  32.7486  32.8320  33.0825  33.1108  33.3537
    33.6434  34.4420  34.9483  35.3772  35.6134  35.8112  35.9044  36.5673
    37.1770  37.3897  37.5859  38.0487  38.5527  38.5941  38.9150  39.0853
    39.2686  39.3153  39.9673  40.3884  40.4693  40.9718  41.3460  42.1281

          k =-0.3331-0.3846-0.2635 ( 15693 PWs)   bands (ev):

   -11.6029 -11.4161 -10.8757 -10.7108 -10.2188 -10.0781  -8.9607  -8.9123
    -2.9035  -2.8373  -1.6384  -1.6009  -1.2551  -1.2101  -0.7982  -0.7435
     0.4453   0.4927   0.5467   0.9427   1.0183   1.5614   1.6235   1.6920
     1.8632   2.3533   2.3915   2.5933   2.7775   3.6151   4.6488   5.1285
     9.9871  10.3518  11.8585  12.3025  12.8391  13.2491  13.3018  14.4173
    15.0491  15.7376  15.8937  16.1897  16.5714  17.0496  17.1613  17.3690
    17.4156  17.9529  18.0173  18.2850  18.5922  18.6020  18.6926  18.9600
    19.9430  20.1600  20.4807  21.4290  21.4793  21.5935  21.7879  22.2555
    22.5252  23.0419  23.7285  23.8676  23.9093  24.2562  24.6532  24.6629
    25.2196  25.3957  25.6335  25.9707  26.0650  26.4951  26.6084  27.6802
    27.9047  28.0771  28.9462  29.3522  29.4483  30.0821  30.5483  31.0086
    31.1017  31.6102  32.4324  32.7491  32.8322  33.0826  33.1106  33.3556
    33.6433  34.4407  34.9481  35.3778  35.6149  35.8110  35.9044  36.5683
    37.1777  37.3886  37.5857  38.0492  38.5527  38.5925  38.9162  39.0866
    39.2689  39.3128  39.9652  40.3895  40.4706  40.9718  41.3454  42.1280

     highest occupied, lowest unoccupied level (ev):     5.2860    9.4652

!    total energy              =    -318.89810374 Ry
     Harris-Foulkes estimate   =    -318.89810373 Ry
     estimated scf accuracy    <          5.2E-10 Ry

     total all-electron energy =     -1275.203268 Ry

     The total energy is the sum of the following terms:

     one-electron contribution =     -48.00668171 Ry
     hartree contribution      =      60.19994532 Ry
     xc contribution           =     -70.67349710 Ry
     ewald contribution        =    -154.96885172 Ry
     one-center paw contrib.   =    -105.44901853 Ry

     convergence has been achieved in  12 iterations

     Forces acting on atoms (cartesian axes, Ry/au):

     atom    1 type  1   force =    -0.00003434    0.00002095   -0.00003900
     atom    2 type  1   force =     0.00003531   -0.00001926    0.00003900
     atom    3 type  2   force =    -0.00003454    0.00002089   -0.00002170
     atom    4 type  2   force =     0.00003537   -0.00001947    0.00002170
     atom    5 type  1   force =    -0.00003474    0.00002006   -0.00003902
     atom    6 type  1   force =     0.00003375   -0.00001949    0.00003902
     atom    7 type  2   force =    -0.00003481    0.00002009   -0.00002172
     atom    8 type  2   force =     0.00003396   -0.00001961    0.00002173
     atom    9 type  1   force =    -0.00003375    0.00001949   -0.00003902
     atom   10 type  1   force =     0.00003474   -0.00002006    0.00003902
     atom   11 type  2   force =    -0.00003396    0.00001961   -0.00002173
     atom   12 type  2   force =     0.00003481   -0.00002009    0.00002172
     atom   13 type  1   force =    -0.00003531    0.00001926   -0.00003900
     atom   14 type  1   force =     0.00003434   -0.00002095    0.00003900
     atom   15 type  2   force =    -0.00003537    0.00001947   -0.00002170
     atom   16 type  2   force =     0.00003454   -0.00002089    0.00002170

     Total force =     0.000204     Total SCF correction =     0.000029
     SCF correction compared to forces is large: reduce conv_thr to get better values


     Computing stress (Cartesian axis) and pressure

          total   stress  (Ry/bohr**3)                   (kbar)     P=   49.94
   0.00033967  -0.00000042  -0.00000000         49.97     -0.06     -0.00
  -0.00000042   0.00033919   0.00000000         -0.06     49.90      0.00
  -0.00000000   0.00000000   0.00033954         -0.00      0.00     49.95


     Writing output data file pwscf.save/
 
     init_run     :     18.71s CPU     19.07s WALL (       2 calls)
     electrons    :   2257.95s CPU   2325.96s WALL (      10 calls)
     update_pot   :     13.88s CPU     13.91s WALL (       8 calls)
     forces       :     18.82s CPU     18.98s WALL (      10 calls)
     stress       :     51.68s CPU     51.83s WALL (      10 calls)

     Called by init_run:
     wfcinit      :     15.31s CPU     15.61s WALL (       2 calls)
     potinit      :      1.67s CPU      1.69s WALL (       2 calls)
     hinit0       :      1.45s CPU      1.46s WALL (       2 calls)

     Called by electrons:
     c_bands      :   1907.75s CPU   1968.79s WALL (      93 calls)
     sum_band     :    303.51s CPU    309.03s WALL (      93 calls)
     v_of_rho     :     10.44s CPU     10.73s WALL (     100 calls)
     newd         :      1.67s CPU      1.69s WALL (     100 calls)
     PAW_pot      :     41.80s CPU     41.88s WALL (     108 calls)
     mix_rho      :      0.57s CPU      0.59s WALL (      93 calls)

     Called by c_bands:
     init_us_2    :      5.50s CPU      5.60s WALL (    7344 calls)
     cegterg      :   1878.83s CPU   1938.69s WALL (    3162 calls)

     Called by sum_band:
     sum_band:bec :      0.44s CPU      0.45s WALL (    3434 calls)
     addusdens    :      1.50s CPU      1.58s WALL (      93 calls)

     Called by *egterg:
     h_psi        :   1201.81s CPU   1230.56s WALL (    8661 calls)
     s_psi        :     36.32s CPU     36.87s WALL (    8661 calls)
     g_psi        :      4.41s CPU      4.44s WALL (    5431 calls)
     cdiaghg      :    373.54s CPU    394.98s WALL (    8219 calls)

     Called by h_psi:
     h_psi:pot    :   1198.33s CPU   1223.18s WALL (    8661 calls)
     h_psi:calbec :     45.07s CPU     45.77s WALL (    8661 calls)
     vloc_psi     :   1116.04s CPU   1138.22s WALL (    8661 calls)
     add_vuspsi   :     37.12s CPU     39.13s WALL (    8661 calls)

     General routines
     calbec       :     80.26s CPU     81.17s WALL (   13795 calls)
     fft          :      4.80s CPU      5.13s WALL (    1371 calls)
     ffts         :      0.12s CPU      0.12s WALL (      93 calls)
     fftw         :   1306.69s CPU   1331.94s WALL ( 2042844 calls)
 
     Parallel routines
     fft_scatt_xy :    132.78s CPU    135.22s WALL ( 2044308 calls)
     fft_scatt_yz :    327.18s CPU    334.21s WALL ( 2044308 calls)
 
     PWSCF        : 39m33.67s CPU    40m45.93s WALL

 
   This run was terminated on:  15:43:25  21Nov2020            

=------------------------------------------------------------------------------=
   JOB DONE.
=------------------------------------------------------------------------------=
