ANIMSTEPS  48
CRYSTAL
PRIMVEC
    5.012954616    0.000024807    0.000000115
   -2.506455827    4.341358452   -0.000000115
    0.000000145   -0.000000085    6.336166021
PRIMCOORD  1
     16   1
   B      0.00002   1.44712   1.58428   0.00001   0.00000  -0.02500
   B      1.25323   0.72357   4.75189   0.00001   0.00000  -0.02500
   N      0.00002   1.44712   4.75195   0.00001   0.00000  -0.02500
   N      1.25323   0.72357   1.58422   0.00001   0.00000  -0.02500
   B      2.50649   1.44713   1.58428   0.00001   0.00000  -0.02500
   B      3.75971   0.72359   4.75189   0.00001   0.00000  -0.02500
   N      2.50649   1.44713   4.75195   0.00001   0.00000  -0.02500
   N      3.75971   0.72359   1.58422   0.00001   0.00000  -0.02500
   B     -1.25321   3.61780   1.58428   0.00001   0.00000  -0.02500
   B      0.00001   2.89425   4.75189   0.00001   0.00000  -0.02500
   N     -1.25321   3.61780   4.75195   0.00001   0.00000  -0.02500
   N      0.00001   2.89425   1.58422   0.00001   0.00000  -0.02500
   B      1.25327   3.61781   1.58428   0.00001   0.00000  -0.02500
   B      2.50648   2.89426   4.75189   0.00001   0.00000  -0.02500
   N      1.25327   3.61781   4.75195   0.00001   0.00000  -0.02500
   N      2.50648   2.89426   1.58422   0.00001   0.00000  -0.02500
PRIMCOORD  2
     16   1
   B      0.00002   1.44712   1.58428   0.01597   0.01924   0.00001
   B      1.25323   0.72357   4.75189   0.01597   0.01924   0.00001
   N      0.00002   1.44712   4.75195   0.01597   0.01924   0.00001
   N      1.25323   0.72357   1.58422   0.01597   0.01924   0.00001
   B      2.50649   1.44713   1.58428   0.01597   0.01924   0.00001
   B      3.75971   0.72359   4.75189   0.01597   0.01924   0.00001
   N      2.50649   1.44713   4.75195   0.01597   0.01924   0.00001
   N      3.75971   0.72359   1.58422   0.01597   0.01924   0.00001
   B     -1.25321   3.61780   1.58428   0.01597   0.01924   0.00001
   B      0.00001   2.89425   4.75189   0.01597   0.01924   0.00001
   N     -1.25321   3.61780   4.75195   0.01597   0.01924   0.00001
   N      0.00001   2.89425   1.58422   0.01597   0.01924   0.00001
   B      1.25327   3.61781   1.58428   0.01597   0.01924   0.00001
   B      2.50648   2.89426   4.75189   0.01597   0.01924   0.00001
   N      1.25327   3.61781   4.75195   0.01597   0.01924   0.00001
   N      2.50648   2.89426   1.58422   0.01597   0.01924   0.00001
PRIMCOORD  3
     16   1
   B      0.00002   1.44712   1.58428   0.01924  -0.01597   0.00000
   B      1.25323   0.72357   4.75189   0.01924  -0.01597   0.00000
   N      0.00002   1.44712   4.75195   0.01924  -0.01597   0.00000
   N      1.25323   0.72357   1.58422   0.01924  -0.01597   0.00000
   B      2.50649   1.44713   1.58428   0.01924  -0.01597   0.00000
   B      3.75971   0.72359   4.75189   0.01924  -0.01597   0.00000
   N      2.50649   1.44713   4.75195   0.01924  -0.01597   0.00000
   N      3.75971   0.72359   1.58422   0.01924  -0.01597   0.00000
   B     -1.25321   3.61780   1.58428   0.01924  -0.01597   0.00000
   B      0.00001   2.89425   4.75189   0.01924  -0.01597   0.00000
   N     -1.25321   3.61780   4.75195   0.01924  -0.01597   0.00000
   N      0.00001   2.89425   1.58422   0.01924  -0.01597   0.00000
   B      1.25327   3.61781   1.58428   0.01924  -0.01597   0.00000
   B      2.50648   2.89426   4.75189   0.01924  -0.01597   0.00000
   N      1.25327   3.61781   4.75195   0.01924  -0.01597   0.00000
   N      2.50648   2.89426   1.58422   0.01924  -0.01597   0.00000
PRIMCOORD  4
     16   1
   B      0.00002   1.44712   1.58428   0.01251   0.02167  -0.00001
   B      1.25323   0.72357   4.75189  -0.01251  -0.02167  -0.00001
   N      0.00002   1.44712   4.75195  -0.01249  -0.02163  -0.00003
   N      1.25323   0.72357   1.58422   0.01249   0.02163  -0.00003
   B      2.50649   1.44713   1.58428   0.01251   0.02167   0.00000
   B      3.75971   0.72359   4.75189  -0.01251  -0.02166  -0.00000
   N      2.50649   1.44713   4.75195  -0.01249  -0.02163  -0.00000
   N      3.75971   0.72359   1.58422   0.01249   0.02164   0.00000
   B     -1.25321   3.61780   1.58428   0.01251   0.02166   0.00000
   B      0.00001   2.89425   4.75189  -0.01251  -0.02167  -0.00000
   N     -1.25321   3.61780   4.75195  -0.01249  -0.02164  -0.00000
   N      0.00001   2.89425   1.58422   0.01249   0.02163   0.00000
   B      1.25327   3.61781   1.58428   0.01251   0.02167   0.00001
   B      2.50648   2.89426   4.75189  -0.01251  -0.02167   0.00001
   N      1.25327   3.61781   4.75195  -0.01249  -0.02163   0.00003
   N      2.50648   2.89426   1.58422   0.01249   0.02163   0.00003
PRIMCOORD  5
     16   1
   B      0.00002   1.44712   1.58428  -0.02166   0.01251  -0.00012
   B      1.25323   0.72357   4.75189   0.02166  -0.01251   0.00012
   N      0.00002   1.44712   4.75195   0.02164  -0.01249   0.00011
   N      1.25323   0.72357   1.58422  -0.02163   0.01250  -0.00011
   B      2.50649   1.44713   1.58428  -0.02167   0.01251  -0.00012
   B      3.75971   0.72359   4.75189   0.02166  -0.01251   0.00011
   N      2.50649   1.44713   4.75195   0.02163  -0.01249   0.00012
   N      3.75971   0.72359   1.58422  -0.02163   0.01249  -0.00013
   B     -1.25321   3.61780   1.58428  -0.02166   0.01251  -0.00011
   B      0.00001   2.89425   4.75189   0.02167  -0.01251   0.00012
   N     -1.25321   3.61780   4.75195   0.02163  -0.01249   0.00013
   N      0.00001   2.89425   1.58422  -0.02163   0.01249  -0.00012
   B      1.25327   3.61781   1.58428  -0.02166   0.01251  -0.00012
   B      2.50648   2.89426   4.75189   0.02166  -0.01251   0.00012
   N      1.25327   3.61781   4.75195   0.02163  -0.01250   0.00011
   N      2.50648   2.89426   1.58422  -0.02164   0.01249  -0.00011
PRIMCOORD  6
     16   1
   B      0.00002   1.44712   1.58428  -0.00010   0.00006   0.02520
   B      1.25323   0.72357   4.75189   0.00010  -0.00006  -0.02520
   N      0.00002   1.44712   4.75195   0.00010  -0.00006  -0.02481
   N      1.25323   0.72357   1.58422  -0.00011   0.00005   0.02481
   B      2.50649   1.44713   1.58428  -0.00011   0.00006   0.02520
   B      3.75971   0.72359   4.75189   0.00010  -0.00006  -0.02516
   N      2.50649   1.44713   4.75195   0.00010  -0.00006  -0.02472
   N      3.75971   0.72359   1.58422  -0.00010   0.00006   0.02490
   B     -1.25321   3.61780   1.58428  -0.00010   0.00006   0.02516
   B      0.00001   2.89425   4.75189   0.00011  -0.00006  -0.02520
   N     -1.25321   3.61780   4.75195   0.00010  -0.00006  -0.02490
   N      0.00001   2.89425   1.58422  -0.00010   0.00006   0.02472
   B      1.25327   3.61781   1.58428  -0.00010   0.00006   0.02520
   B      2.50648   2.89426   4.75189   0.00010  -0.00006  -0.02520
   N      1.25327   3.61781   4.75195   0.00011  -0.00005  -0.02481
   N      2.50648   2.89426   1.58422  -0.00010   0.00006   0.02481
PRIMCOORD  7
     16   1
   B      0.00002   1.44712   1.58428  -0.00000   0.00000   0.00901
   B      1.25323   0.72357   4.75189   0.00000   0.00000  -0.00901
   N      0.00002   1.44712   4.75195   0.00001  -0.00000   0.03125
   N      1.25323   0.72357   1.58422  -0.00001   0.00001  -0.03125
   B      2.50649   1.44713   1.58428  -0.00000   0.00000  -0.00359
   B      3.75971   0.72359   4.75189   0.00001  -0.00000   0.01452
   N      2.50649   1.44713   4.75195   0.00000  -0.00000  -0.01231
   N      3.75971   0.72359   1.58422   0.00000  -0.00000   0.05009
   B     -1.25321   3.61780   1.58428  -0.00001   0.00000  -0.01452
   B      0.00001   2.89425   4.75189   0.00000  -0.00000   0.00359
   N     -1.25321   3.61780   4.75195  -0.00000   0.00000  -0.05009
   N      0.00001   2.89425   1.58422  -0.00000   0.00000   0.01231
   B      1.25327   3.61781   1.58428  -0.00000  -0.00000   0.00901
   B      2.50648   2.89426   4.75189   0.00000  -0.00000  -0.00901
   N      1.25327   3.61781   4.75195   0.00001  -0.00001   0.03125
   N      2.50648   2.89426   1.58422  -0.00001   0.00000  -0.03125
PRIMCOORD  8
     16   1
   B      0.00002   1.44712   1.58428   0.00001   0.00002   0.01386
   B      1.25323   0.72357   4.75189  -0.00001  -0.00001   0.01386
   N      0.00002   1.44712   4.75195  -0.00000  -0.00001   0.04804
   N      1.25323   0.72357   1.58422   0.00001   0.00001   0.04804
   B      2.50649   1.44713   1.58428   0.00001   0.00001  -0.00000
   B      3.75971   0.72359   4.75189  -0.00001  -0.00001  -0.00000
   N      2.50649   1.44713   4.75195  -0.00001  -0.00002  -0.00000
   N      3.75971   0.72359   1.58422   0.00001   0.00001  -0.00000
   B     -1.25321   3.61780   1.58428   0.00001   0.00001   0.00000
   B      0.00001   2.89425   4.75189  -0.00001  -0.00001   0.00000
   N     -1.25321   3.61780   4.75195  -0.00001  -0.00001   0.00000
   N      0.00001   2.89425   1.58422   0.00001   0.00002   0.00000
   B      1.25327   3.61781   1.58428   0.00001   0.00001  -0.01386
   B      2.50648   2.89426   4.75189  -0.00001  -0.00002  -0.01386
   N      1.25327   3.61781   4.75195  -0.00001  -0.00001  -0.04804
   N      2.50648   2.89426   1.58422   0.00000   0.00001  -0.04804
PRIMCOORD  9
     16   1
   B      0.00002   1.44712   1.58428  -0.00000   0.00000  -0.00392
   B      1.25323   0.72357   4.75189   0.00000  -0.00000   0.00392
   N      0.00002   1.44712   4.75195  -0.00000   0.00000  -0.01332
   N      1.25323   0.72357   1.58422   0.00000  -0.00000   0.01332
   B      2.50649   1.44713   1.58428   0.00000  -0.00000   0.01660
   B      3.75971   0.72359   4.75189   0.00000  -0.00000   0.00896
   N      2.50649   1.44713   4.75195   0.00001  -0.00000   0.05756
   N      3.75971   0.72359   1.58422  -0.00000   0.00000   0.03076
   B     -1.25321   3.61780   1.58428  -0.00000   0.00000  -0.00896
   B      0.00001   2.89425   4.75189  -0.00000   0.00000  -0.01660
   N     -1.25321   3.61780   4.75195   0.00000  -0.00000  -0.03076
   N      0.00001   2.89425   1.58422  -0.00001   0.00000  -0.05756
   B      1.25327   3.61781   1.58428  -0.00000   0.00000  -0.00392
   B      2.50648   2.89426   4.75189   0.00000  -0.00000   0.00392
   N      1.25327   3.61781   4.75195  -0.00000   0.00000  -0.01332
   N      2.50648   2.89426   1.58422   0.00000  -0.00000   0.01332
PRIMCOORD 10
     16   1
   B      0.00002   1.44712   1.58428  -0.00001  -0.00001   0.01910
   B      1.25323   0.72357   4.75189  -0.00001  -0.00001  -0.01910
   N      0.00002   1.44712   4.75195   0.00000   0.00001  -0.04621
   N      1.25323   0.72357   1.58422   0.00001   0.00001   0.04621
   B      2.50649   1.44713   1.58428   0.00001   0.00001  -0.00000
   B      3.75971   0.72359   4.75189   0.00000   0.00001   0.00000
   N      2.50649   1.44713   4.75195  -0.00000  -0.00001   0.00000
   N      3.75971   0.72359   1.58422  -0.00000  -0.00001  -0.00000
   B     -1.25321   3.61780   1.58428   0.00000   0.00001   0.00000
   B      0.00001   2.89425   4.75189   0.00001   0.00001  -0.00000
   N     -1.25321   3.61780   4.75195  -0.00000  -0.00001  -0.00000
   N      0.00001   2.89425   1.58422  -0.00000  -0.00001   0.00000
   B      1.25327   3.61781   1.58428  -0.00001  -0.00001  -0.01910
   B      2.50648   2.89426   4.75189  -0.00001  -0.00001   0.01910
   N      1.25327   3.61781   4.75195   0.00001   0.00001   0.04621
   N      2.50648   2.89426   1.58422   0.00000   0.00001  -0.04621
PRIMCOORD 11
     16   1
   B      0.00002   1.44712   1.58428  -0.00000  -0.00000   0.00932
   B      1.25323   0.72357   4.75189   0.00000   0.00000   0.00932
   N      0.00002   1.44712   4.75195  -0.00000   0.00000  -0.02254
   N      1.25323   0.72357   1.58422  -0.00000  -0.00000  -0.02254
   B      2.50649   1.44713   1.58428  -0.00000   0.00000   0.00450
   B      3.75971   0.72359   4.75189   0.00001  -0.00000  -0.02316
   N      2.50649   1.44713   4.75195   0.00000  -0.00000  -0.01089
   N      3.75971   0.72359   1.58422  -0.00001   0.00000   0.05599
   B     -1.25321   3.61780   1.58428   0.00001  -0.00000  -0.02316
   B      0.00001   2.89425   4.75189  -0.00000   0.00000   0.00450
   N     -1.25321   3.61780   4.75195  -0.00001   0.00000   0.05599
   N      0.00001   2.89425   1.58422   0.00000  -0.00000  -0.01089
   B      1.25327   3.61781   1.58428   0.00000   0.00000   0.00932
   B      2.50648   2.89426   4.75189  -0.00000  -0.00000   0.00932
   N      1.25327   3.61781   4.75195  -0.00000  -0.00000  -0.02254
   N      2.50648   2.89426   1.58422  -0.00000   0.00000  -0.02254
PRIMCOORD 12
     16   1
   B      0.00002   1.44712   1.58428   0.00000   0.00001  -0.00978
   B      1.25323   0.72357   4.75189  -0.00000  -0.00000  -0.00978
   N      0.00002   1.44712   4.75195   0.00000  -0.00000   0.02364
   N      1.25323   0.72357   1.58422   0.00000  -0.00000   0.02364
   B      2.50649   1.44713   1.58428   0.00001  -0.00000   0.02298
   B      3.75971   0.72359   4.75189  -0.00000   0.00000  -0.00341
   N      2.50649   1.44713   4.75195  -0.00001   0.00001  -0.05553
   N      3.75971   0.72359   1.58422   0.00000  -0.00000   0.00824
   B     -1.25321   3.61780   1.58428  -0.00000   0.00000  -0.00341
   B      0.00001   2.89425   4.75189   0.00001  -0.00000   0.02298
   N     -1.25321   3.61780   4.75195   0.00000  -0.00000   0.00824
   N      0.00001   2.89425   1.58422  -0.00001   0.00001  -0.05553
   B      1.25327   3.61781   1.58428  -0.00000  -0.00000  -0.00978
   B      2.50648   2.89426   4.75189   0.00000   0.00001  -0.00978
   N      1.25327   3.61781   4.75195   0.00000  -0.00000   0.02364
   N      2.50648   2.89426   1.58422   0.00000  -0.00000   0.02364
PRIMCOORD 13
     16   1
   B      0.00002   1.44712   1.58428   0.00902   0.01563  -0.00000
   B      1.25323   0.72357   4.75189   0.00902   0.01563   0.00000
   N      0.00002   1.44712   4.75195   0.00864   0.01497  -0.00000
   N      1.25323   0.72357   1.58422   0.00864   0.01497   0.00000
   B      2.50649   1.44713   1.58428   0.02709  -0.01564  -0.00000
   B      3.75971   0.72359   4.75189   0.02709  -0.01564  -0.00002
   N      2.50649   1.44713   4.75195   0.02594  -0.01498  -0.00000
   N      3.75971   0.72359   1.58422   0.02594  -0.01498   0.00000
   B     -1.25321   3.61780   1.58428  -0.02709   0.01564   0.00002
   B      0.00001   2.89425   4.75189  -0.02709   0.01564   0.00000
   N     -1.25321   3.61780   4.75195  -0.02594   0.01498  -0.00000
   N      0.00001   2.89425   1.58422  -0.02594   0.01498   0.00000
   B      1.25327   3.61781   1.58428  -0.00902  -0.01563  -0.00000
   B      2.50648   2.89426   4.75189  -0.00902  -0.01563   0.00000
   N      1.25327   3.61781   4.75195  -0.00864  -0.01497  -0.00000
   N      2.50648   2.89426   1.58422  -0.00864  -0.01497   0.00000
PRIMCOORD 14
     16   1
   B      0.00002   1.44712   1.58428  -0.02062   0.02259  -0.00002
   B      1.25323   0.72357   4.75189  -0.02987   0.00657  -0.00002
   N      0.00002   1.44712   4.75195  -0.01975   0.02163   0.00000
   N      1.25323   0.72357   1.58422  -0.02861   0.00629   0.00000
   B      2.50649   1.44713   1.58428  -0.01304  -0.02258   0.00000
   B      3.75971   0.72359   4.75189  -0.00379  -0.00656   0.00000
   N      2.50649   1.44713   4.75195  -0.01249  -0.02162   0.00000
   N      3.75971   0.72359   1.58422  -0.00363  -0.00628  -0.00000
   B     -1.25321   3.61780   1.58428   0.00379   0.00656  -0.00000
   B      0.00001   2.89425   4.75189   0.01304   0.02258  -0.00000
   N     -1.25321   3.61780   4.75195   0.00363   0.00628   0.00000
   N      0.00001   2.89425   1.58422   0.01249   0.02162  -0.00000
   B      1.25327   3.61781   1.58428   0.02987  -0.00657   0.00002
   B      2.50648   2.89426   4.75189   0.02062  -0.02259   0.00002
   N      1.25327   3.61781   4.75195   0.02861  -0.00629  -0.00000
   N      2.50648   2.89426   1.58422   0.01975  -0.02163  -0.00000
PRIMCOORD 15
     16   1
   B      0.00002   1.44712   1.58428   0.02171   0.01495   0.00005
   B      1.25323   0.72357   4.75189  -0.00209  -0.02628   0.00005
   N      0.00002   1.44712   4.75195   0.02079   0.01432  -0.00001
   N      1.25323   0.72357   1.58422  -0.00200  -0.02516  -0.00001
   B      2.50649   1.44713   1.58428  -0.00863  -0.01496   0.00000
   B      3.75971   0.72359   4.75189   0.01517   0.02628  -0.00000
   N      2.50649   1.44713   4.75195  -0.00826  -0.01431  -0.00000
   N      3.75971   0.72359   1.58422   0.01453   0.02516   0.00000
   B     -1.25321   3.61780   1.58428  -0.01517  -0.02628   0.00000
   B      0.00001   2.89425   4.75189   0.00863   0.01496  -0.00000
   N     -1.25321   3.61780   4.75195  -0.01453  -0.02516  -0.00000
   N      0.00001   2.89425   1.58422   0.00826   0.01431   0.00000
   B      1.25327   3.61781   1.58428   0.00209   0.02628  -0.00005
   B      2.50648   2.89426   4.75189  -0.02171  -0.01495  -0.00005
   N      1.25327   3.61781   4.75195   0.00200   0.02516   0.00001
   N      2.50648   2.89426   1.58422  -0.02079  -0.01432   0.00001
PRIMCOORD 16
     16   1
   B      0.00002   1.44712   1.58428   0.02456   0.01149   0.00001
   B      1.25323   0.72357   4.75189  -0.00233   0.02702  -0.00001
   N      0.00002   1.44712   4.75195  -0.02341  -0.01095  -0.00001
   N      1.25323   0.72357   1.58422   0.00222  -0.02575   0.00001
   B      2.50649   1.44713   1.58428  -0.00664  -0.01149  -0.00000
   B      3.75971   0.72359   4.75189  -0.01560  -0.02701  -0.00000
   N      2.50649   1.44713   4.75195   0.00632   0.01095   0.00000
   N      3.75971   0.72359   1.58422   0.01487   0.02575  -0.00000
   B     -1.25321   3.61780   1.58428  -0.01560  -0.02701  -0.00000
   B      0.00001   2.89425   4.75189  -0.00664  -0.01149  -0.00000
   N     -1.25321   3.61780   4.75195   0.01487   0.02575  -0.00000
   N      0.00001   2.89425   1.58422   0.00632   0.01095   0.00000
   B      1.25327   3.61781   1.58428  -0.00233   0.02702  -0.00001
   B      2.50648   2.89426   4.75189   0.02456   0.01149   0.00001
   N      1.25327   3.61781   4.75195   0.00222  -0.02575   0.00001
   N      2.50648   2.89426   1.58422  -0.02341  -0.01095  -0.00001
PRIMCOORD 17
     16   1
   B      0.00002   1.44712   1.58428   0.00903   0.01571   0.00002
   B      1.25323   0.72357   4.75189  -0.00901  -0.01568   0.00002
   N      0.00002   1.44712   4.75195  -0.00860  -0.01497  -0.00001
   N      1.25323   0.72357   1.58422   0.00859   0.01494  -0.00001
   B      2.50649   1.44713   1.58428   0.02713  -0.01571  -0.00001
   B      3.75971   0.72359   4.75189  -0.02714   0.01568  -0.00000
   N      2.50649   1.44713   4.75195  -0.02585   0.01497   0.00000
   N      3.75971   0.72359   1.58422   0.02587  -0.01494   0.00000
   B     -1.25321   3.61780   1.58428  -0.02714   0.01568  -0.00000
   B      0.00001   2.89425   4.75189   0.02713  -0.01571  -0.00001
   N     -1.25321   3.61780   4.75195   0.02587  -0.01494   0.00000
   N      0.00001   2.89425   1.58422  -0.02585   0.01497   0.00000
   B      1.25327   3.61781   1.58428  -0.00901  -0.01568   0.00002
   B      2.50648   2.89426   4.75189   0.00903   0.01571   0.00002
   N      1.25327   3.61781   4.75195   0.00859   0.01494  -0.00001
   N      2.50648   2.89426   1.58422  -0.00860  -0.01497  -0.00001
PRIMCOORD 18
     16   1
   B      0.00002   1.44712   1.58428  -0.01725   0.02457   0.00001
   B      1.25323   0.72357   4.75189   0.02993  -0.00261  -0.00001
   N      0.00002   1.44712   4.75195   0.01644  -0.02342  -0.00001
   N      1.25323   0.72357   1.58422  -0.02853   0.00249   0.00001
   B      2.50649   1.44713   1.58428  -0.01423  -0.02457   0.00000
   B      3.75971   0.72359   4.75189   0.00156   0.00261   0.00000
   N      2.50649   1.44713   4.75195   0.01357   0.02342  -0.00000
   N      3.75971   0.72359   1.58422  -0.00148  -0.00249   0.00000
   B     -1.25321   3.61780   1.58428   0.00156   0.00261   0.00000
   B      0.00001   2.89425   4.75189  -0.01423  -0.02457   0.00000
   N     -1.25321   3.61780   4.75195  -0.00148  -0.00249   0.00000
   N      0.00001   2.89425   1.58422   0.01357   0.02342  -0.00000
   B      1.25327   3.61781   1.58428   0.02993  -0.00261  -0.00001
   B      2.50648   2.89426   4.75189  -0.01725   0.02457   0.00001
   N      1.25327   3.61781   4.75195  -0.02853   0.00249   0.00001
   N      2.50648   2.89426   1.58422   0.01644  -0.02342  -0.00001
PRIMCOORD 19
     16   1
   B      0.00002   1.44712   1.58428   0.00003   0.00001  -0.04881
   B      1.25323   0.72357   4.75189   0.00001  -0.00002  -0.04881
   N      0.00002   1.44712   4.75195   0.00002   0.00001   0.01087
   N      1.25323   0.72357   1.58422   0.00000  -0.00002   0.01087
   B      2.50649   1.44713   1.58428   0.00000   0.00000  -0.00000
   B      3.75971   0.72359   4.75189   0.00002   0.00004  -0.00000
   N      2.50649   1.44713   4.75195   0.00001   0.00001   0.00000
   N      3.75971   0.72359   1.58422   0.00002   0.00004   0.00000
   B     -1.25321   3.61780   1.58428  -0.00002  -0.00004   0.00000
   B      0.00001   2.89425   4.75189  -0.00000  -0.00000   0.00000
   N     -1.25321   3.61780   4.75195  -0.00002  -0.00004  -0.00000
   N      0.00001   2.89425   1.58422  -0.00001  -0.00001  -0.00000
   B      1.25327   3.61781   1.58428  -0.00001   0.00002   0.04881
   B      2.50648   2.89426   4.75189  -0.00003  -0.00001   0.04881
   N      1.25327   3.61781   4.75195  -0.00000   0.00002  -0.01087
   N      2.50648   2.89426   1.58422  -0.00002  -0.00001  -0.01087
PRIMCOORD 20
     16   1
   B      0.00002   1.44712   1.58428   0.00000   0.00000   0.00149
   B      1.25323   0.72357   4.75189   0.00000   0.00000  -0.00149
   N      0.00002   1.44712   4.75195   0.00001   0.00001  -0.00033
   N      1.25323   0.72357   1.58422   0.00000   0.00001   0.00033
   B      2.50649   1.44713   1.58428   0.00001  -0.00000   0.04727
   B      3.75971   0.72359   4.75189   0.00001  -0.00000   0.05023
   N      2.50649   1.44713   4.75195  -0.00000   0.00000  -0.01056
   N      3.75971   0.72359   1.58422   0.00000  -0.00000  -0.01122
   B     -1.25321   3.61780   1.58428  -0.00001   0.00000  -0.05023
   B      0.00001   2.89425   4.75189  -0.00001   0.00000  -0.04727
   N     -1.25321   3.61780   4.75195  -0.00000   0.00000   0.01122
   N      0.00001   2.89425   1.58422   0.00000  -0.00000   0.01056
   B      1.25327   3.61781   1.58428  -0.00000  -0.00000   0.00149
   B      2.50648   2.89426   4.75189  -0.00000  -0.00000  -0.00149
   N      1.25327   3.61781   4.75195  -0.00000  -0.00001  -0.00033
   N      2.50648   2.89426   1.58422  -0.00001  -0.00001   0.00033
PRIMCOORD 21
     16   1
   B      0.00002   1.44712   1.58428  -0.00000   0.00000   0.03447
   B      1.25323   0.72357   4.75189   0.00000  -0.00000  -0.03447
   N      0.00002   1.44712   4.75195  -0.00001  -0.00000  -0.00770
   N      1.25323   0.72357   1.58422   0.00000  -0.00001   0.00770
   B      2.50649   1.44713   1.58428   0.00001  -0.00001  -0.03657
   B      3.75971   0.72359   4.75189   0.00000  -0.00000   0.03238
   N      2.50649   1.44713   4.75195   0.00001  -0.00001   0.00817
   N      3.75971   0.72359   1.58422   0.00000  -0.00000  -0.00723
   B     -1.25321   3.61780   1.58428  -0.00000   0.00000  -0.03238
   B      0.00001   2.89425   4.75189  -0.00001   0.00001   0.03657
   N     -1.25321   3.61780   4.75195  -0.00000   0.00000   0.00723
   N      0.00001   2.89425   1.58422  -0.00001   0.00001  -0.00817
   B      1.25327   3.61781   1.58428  -0.00000   0.00000   0.03447
   B      2.50648   2.89426   4.75189   0.00000  -0.00000  -0.03447
   N      1.25327   3.61781   4.75195  -0.00000   0.00001  -0.00770
   N      2.50648   2.89426   1.58422   0.00001   0.00000   0.00770
PRIMCOORD 22
     16   1
   B      0.00002   1.44712   1.58428   0.00000  -0.00001   0.04763
   B      1.25323   0.72357   4.75189  -0.00001  -0.00000  -0.04763
   N      0.00002   1.44712   4.75195  -0.00000   0.00001   0.01520
   N      1.25323   0.72357   1.58422   0.00001   0.00000  -0.01520
   B      2.50649   1.44713   1.58428   0.00000   0.00001   0.00000
   B      3.75971   0.72359   4.75189   0.00000   0.00000  -0.00000
   N      2.50649   1.44713   4.75195  -0.00000  -0.00001   0.00000
   N      3.75971   0.72359   1.58422  -0.00000  -0.00000  -0.00000
   B     -1.25321   3.61780   1.58428   0.00000   0.00000  -0.00000
   B      0.00001   2.89425   4.75189   0.00000   0.00001   0.00000
   N     -1.25321   3.61780   4.75195  -0.00000  -0.00000  -0.00000
   N      0.00001   2.89425   1.58422  -0.00000  -0.00001   0.00000
   B      1.25327   3.61781   1.58428  -0.00001  -0.00000  -0.04763
   B      2.50648   2.89426   4.75189   0.00000  -0.00001   0.04763
   N      1.25327   3.61781   4.75195   0.00001   0.00000  -0.01520
   N      2.50648   2.89426   1.58422  -0.00000   0.00001   0.01520
PRIMCOORD 23
     16   1
   B      0.00002   1.44712   1.58428   0.00000   0.00000  -0.01293
   B      1.25323   0.72357   4.75189  -0.00000  -0.00000  -0.01293
   N      0.00002   1.44712   4.75195  -0.00000   0.00000  -0.00413
   N      1.25323   0.72357   1.58422  -0.00000  -0.00000  -0.00413
   B      2.50649   1.44713   1.58428   0.00000  -0.00000  -0.03105
   B      3.75971   0.72359   4.75189  -0.00000   0.00000   0.05691
   N      2.50649   1.44713   4.75195  -0.00000   0.00000  -0.00991
   N      3.75971   0.72359   1.58422   0.00000  -0.00000   0.01817
   B     -1.25321   3.61780   1.58428  -0.00000   0.00000   0.05691
   B      0.00001   2.89425   4.75189   0.00000  -0.00000  -0.03105
   N     -1.25321   3.61780   4.75195   0.00000  -0.00000   0.01817
   N      0.00001   2.89425   1.58422  -0.00000   0.00000  -0.00991
   B      1.25327   3.61781   1.58428  -0.00000  -0.00000  -0.01293
   B      2.50648   2.89426   4.75189   0.00000   0.00000  -0.01293
   N      1.25327   3.61781   4.75195  -0.00000  -0.00000  -0.00413
   N      2.50648   2.89426   1.58422  -0.00000   0.00000  -0.00413
PRIMCOORD 24
     16   1
   B      0.00002   1.44712   1.58428  -0.00000  -0.00000   0.03110
   B      1.25323   0.72357   4.75189   0.00000   0.00000   0.03110
   N      0.00002   1.44712   4.75195   0.00000   0.00000   0.00993
   N      1.25323   0.72357   1.58422  -0.00000  -0.00000   0.00993
   B      2.50649   1.44713   1.58428  -0.00001   0.00000  -0.04938
   B      3.75971   0.72359   4.75189   0.00001  -0.00000  -0.01282
   N      2.50649   1.44713   4.75195   0.00000  -0.00000  -0.01577
   N      3.75971   0.72359   1.58422  -0.00000   0.00000  -0.00409
   B     -1.25321   3.61780   1.58428   0.00001  -0.00000  -0.01282
   B      0.00001   2.89425   4.75189  -0.00001   0.00000  -0.04938
   N     -1.25321   3.61780   4.75195  -0.00000   0.00000  -0.00409
   N      0.00001   2.89425   1.58422   0.00000  -0.00000  -0.01577
   B      1.25327   3.61781   1.58428   0.00000   0.00000   0.03110
   B      2.50648   2.89426   4.75189  -0.00000  -0.00000   0.03110
   N      1.25327   3.61781   4.75195  -0.00000  -0.00000   0.00993
   N      2.50648   2.89426   1.58422   0.00000   0.00000   0.00993
PRIMCOORD 25
     16   1
   B      0.00002   1.44712   1.58428   0.00000   0.00000  -0.02799
   B      1.25323   0.72357   4.75189  -0.00000  -0.00000  -0.02799
   N      0.00002   1.44712   4.75195   0.00000  -0.00000   0.02160
   N      1.25323   0.72357   1.58422   0.00000   0.00000   0.02160
   B      2.50649   1.44713   1.58428   0.00001  -0.00000  -0.02799
   B      3.75971   0.72359   4.75189  -0.00001   0.00001  -0.02799
   N      2.50649   1.44713   4.75195  -0.00000   0.00000   0.02160
   N      3.75971   0.72359   1.58422   0.00000  -0.00000   0.02159
   B     -1.25321   3.61780   1.58428  -0.00001   0.00001  -0.02799
   B      0.00001   2.89425   4.75189   0.00001  -0.00000  -0.02799
   N     -1.25321   3.61780   4.75195   0.00000  -0.00000   0.02159
   N      0.00001   2.89425   1.58422  -0.00000   0.00000   0.02160
   B      1.25327   3.61781   1.58428  -0.00000  -0.00000  -0.02799
   B      2.50648   2.89426   4.75189   0.00000   0.00000  -0.02799
   N      1.25327   3.61781   4.75195   0.00000   0.00000   0.02160
   N      2.50648   2.89426   1.58422   0.00000  -0.00000   0.02160
PRIMCOORD 26
     16   1
   B      0.00002   1.44712   1.58428   0.00000   0.00000  -0.02783
   B      1.25323   0.72357   4.75189   0.00000   0.00000   0.02783
   N      0.00002   1.44712   4.75195  -0.00000   0.00001  -0.02180
   N      1.25323   0.72357   1.58422   0.00001   0.00000   0.02180
   B      2.50649   1.44713   1.58428  -0.00001   0.00000  -0.02783
   B      3.75971   0.72359   4.75189  -0.00000   0.00000   0.02783
   N      2.50649   1.44713   4.75195   0.00000  -0.00000  -0.02181
   N      3.75971   0.72359   1.58422  -0.00001   0.00000   0.02180
   B     -1.25321   3.61780   1.58428   0.00000  -0.00000  -0.02783
   B      0.00001   2.89425   4.75189   0.00001  -0.00000   0.02783
   N     -1.25321   3.61780   4.75195   0.00001  -0.00000  -0.02180
   N      0.00001   2.89425   1.58422  -0.00000   0.00000   0.02181
   B      1.25327   3.61781   1.58428  -0.00000  -0.00000  -0.02783
   B      2.50648   2.89426   4.75189  -0.00000  -0.00000   0.02783
   N      1.25327   3.61781   4.75195  -0.00001  -0.00000  -0.02180
   N      2.50648   2.89426   1.58422   0.00000  -0.00001   0.02180
PRIMCOORD 27
     16   1
   B      0.00002   1.44712   1.58428   0.00341   0.00785   0.00000
   B      1.25323   0.72357   4.75189  -0.00510  -0.00688   0.00000
   N      0.00002   1.44712   4.75195   0.01685   0.03882  -0.00000
   N      1.25323   0.72357   1.58422  -0.02519  -0.03400  -0.00000
   B      2.50649   1.44713   1.58428  -0.00339   0.00196   0.00000
   B      3.75971   0.72359   4.75189   0.00507  -0.00293  -0.00000
   N      2.50649   1.44713   4.75195  -0.01683   0.00972   0.00000
   N      3.75971   0.72359   1.58422   0.02517  -0.01454   0.00000
   B     -1.25321   3.61780   1.58428   0.00507  -0.00293  -0.00000
   B      0.00001   2.89425   4.75189  -0.00339   0.00196   0.00000
   N     -1.25321   3.61780   4.75195   0.02517  -0.01454   0.00000
   N      0.00001   2.89425   1.58422  -0.01683   0.00972   0.00000