[Molden Format]
[FREQ]
    0.00
    0.00
    0.00
   70.58
   70.78
  160.93
  314.99
  315.19
  315.21
  318.43
  318.95
  319.09
  546.16
  546.18
  546.26
  550.03
  550.12
  550.13
  597.21
  597.39
  597.40
  619.14
  619.15
  619.17
  728.02
  793.84
 1157.11
 1157.13
 1157.14
 1159.82
 1159.91
 1160.04
 1264.29
 1264.43
 1264.48
 1265.97
 1266.07
 1266.08
 1296.63
 1296.94
 1297.17
 1309.40
 1309.47
 1309.48
 1364.35
 1364.43
 1364.65
 1364.79
[FR-COORD]
   B           0.00003        2.73466        2.99385
   B           2.36827        1.36736        8.97977
   N           0.00003        2.73466        8.97988
   N           2.36827        1.36736        2.99373
   B           4.73659        2.73468        2.99385
   B           7.10482        1.36738        8.97977
   N           4.73659        2.73468        8.97989
   N           7.10482        1.36738        2.99373
   B          -2.36823        6.83665        2.99385
   B           0.00001        5.46934        8.97977
   N          -2.36823        6.83665        8.97989
   N           0.00001        5.46934        2.99373
   B           2.36833        6.83667        2.99385
   B           4.73657        5.46937        8.97977
   N           2.36833        6.83667        8.97988
   N           4.73657        5.46937        2.99373
[FR-NORM-COORD]
 vibration     1
   0.00007   0.00001  -0.25000
   0.00007   0.00001  -0.25000
   0.00007   0.00001  -0.25000
   0.00007   0.00001  -0.25000
   0.00007   0.00001  -0.25000
   0.00007   0.00001  -0.25000
   0.00007   0.00001  -0.25000
   0.00007   0.00001  -0.25000
   0.00007   0.00001  -0.25000
   0.00007   0.00001  -0.25000
   0.00007   0.00001  -0.25000
   0.00007   0.00001  -0.25000
   0.00007   0.00001  -0.25000
   0.00007   0.00001  -0.25000
   0.00007   0.00001  -0.25000
   0.00007   0.00001  -0.25000
 vibration     2
   0.15968   0.19236   0.00006
   0.15968   0.19236   0.00006
   0.15968   0.19236   0.00006
   0.15968   0.19236   0.00006
   0.15968   0.19236   0.00006
   0.15968   0.19236   0.00006
   0.15968   0.19236   0.00006
   0.15968   0.19236   0.00006
   0.15968   0.19236   0.00006
   0.15968   0.19236   0.00006
   0.15968   0.19236   0.00006
   0.15968   0.19236   0.00006
   0.15968   0.19236   0.00006
   0.15968   0.19236   0.00006
   0.15968   0.19236   0.00006
   0.15968   0.19236   0.00006
 vibration     3
   0.19236  -0.15968   0.00005
   0.19236  -0.15968   0.00005
   0.19236  -0.15968   0.00005
   0.19236  -0.15968   0.00005
   0.19236  -0.15968   0.00005
   0.19236  -0.15968   0.00005
   0.19236  -0.15968   0.00005
   0.19236  -0.15968   0.00005
   0.19236  -0.15968   0.00005
   0.19236  -0.15968   0.00005
   0.19236  -0.15968   0.00005
   0.19236  -0.15968   0.00005
   0.19236  -0.15968   0.00005
   0.19236  -0.15968   0.00005
   0.19236  -0.15968   0.00005
   0.19236  -0.15968   0.00005
 vibration     4
   0.12513   0.21667  -0.00008
  -0.12511  -0.21669  -0.00008
  -0.12490  -0.21631  -0.00027
   0.12491   0.21630  -0.00027
   0.12512   0.21667   0.00000
  -0.12510  -0.21664  -0.00000
  -0.12492  -0.21633  -0.00000
   0.12495   0.21638   0.00000
   0.12510   0.21664   0.00000
  -0.12512  -0.21667  -0.00000
  -0.12495  -0.21638  -0.00000
   0.12492   0.21633   0.00000
   0.12511   0.21669   0.00008
  -0.12513  -0.21667   0.00008
  -0.12491  -0.21630   0.00027
   0.12490   0.21631   0.00027
 vibration     5
  -0.21664   0.12511  -0.00119
   0.21665  -0.12509   0.00119
   0.21636  -0.12492   0.00113
  -0.21635   0.12495  -0.00114
  -0.21667   0.12512  -0.00116
   0.21664  -0.12510   0.00114
   0.21629  -0.12490   0.00115
  -0.21635   0.12493  -0.00127
  -0.21664   0.12510  -0.00114
   0.21667  -0.12512   0.00116
   0.21635  -0.12493   0.00127
  -0.21629   0.12490  -0.00115
  -0.21665   0.12509  -0.00119
   0.21664  -0.12511   0.00119
   0.21635  -0.12495   0.00114
  -0.21636   0.12492  -0.00113
 vibration     6
  -0.00102   0.00056   0.25195
   0.00100  -0.00061  -0.25195
   0.00099  -0.00064  -0.24805
  -0.00105   0.00054   0.24805
  -0.00108   0.00062   0.25203
   0.00103  -0.00059  -0.25164
   0.00096  -0.00056  -0.24723
  -0.00100   0.00057   0.24900
  -0.00103   0.00059   0.25164
   0.00108  -0.00062  -0.25203
   0.00100  -0.00057  -0.24900
  -0.00096   0.00056   0.24723
  -0.00100   0.00061   0.25195
   0.00102  -0.00056  -0.25195
   0.00105  -0.00054  -0.24805
  -0.00099   0.00064   0.24805
 vibration     7
  -0.00001   0.00004   0.09013
   0.00004   0.00001  -0.09013
   0.00007  -0.00002   0.31247
  -0.00006   0.00005  -0.31247
  -0.00003   0.00002  -0.03594
   0.00007  -0.00004   0.14524
   0.00003  -0.00002  -0.12309
   0.00002  -0.00001   0.50093
  -0.00007   0.00004  -0.14524
   0.00003  -0.00002   0.03594
  -0.00002   0.00001  -0.50093
  -0.00003   0.00002   0.12309
  -0.00004  -0.00001   0.09013
   0.00001  -0.00004  -0.09013
   0.00006  -0.00005   0.31247
  -0.00007   0.00002  -0.31247
 vibration     8
   0.00006   0.00015   0.13858
  -0.00010  -0.00013   0.13858
  -0.00005  -0.00012   0.48041
   0.00008   0.00010   0.48041
   0.00007   0.00012  -0.00000
  -0.00008  -0.00014  -0.00000
  -0.00012  -0.00020  -0.00000
   0.00007   0.00012  -0.00000
   0.00008   0.00014   0.00000
  -0.00007  -0.00012   0.00000
  -0.00007  -0.00012   0.00000
   0.00012   0.00020   0.00000
   0.00010   0.00013  -0.13858
  -0.00006  -0.00015  -0.13858
  -0.00008  -0.00010  -0.48041
   0.00005   0.00012  -0.48041
 vibration     9
  -0.00004   0.00002  -0.03917
   0.00004  -0.00003   0.03917
  -0.00003   0.00000  -0.13316
   0.00002  -0.00003   0.13316
   0.00003  -0.00002   0.16598
   0.00000  -0.00000   0.08960
   0.00008  -0.00005   0.57558
  -0.00001   0.00001   0.30757
  -0.00000   0.00000  -0.08960
  -0.00003   0.00002  -0.16598
   0.00001  -0.00001  -0.30757
  -0.00008   0.00005  -0.57558
  -0.00004   0.00003  -0.03917
   0.00004  -0.00002   0.03917
  -0.00002   0.00003  -0.13316
   0.00003  -0.00000   0.13316
 vibration    10
  -0.00008  -0.00013   0.19101
  -0.00007  -0.00013  -0.19101
   0.00002   0.00011  -0.46208
   0.00009   0.00008   0.46208
   0.00007   0.00012  -0.00000
   0.00005   0.00008   0.00000
  -0.00005  -0.00008   0.00000
  -0.00004  -0.00007  -0.00000
   0.00005   0.00008   0.00000
   0.00007   0.00012  -0.00000
  -0.00004  -0.00007  -0.00000
  -0.00005  -0.00008   0.00000
  -0.00007  -0.00013  -0.19101
  -0.00008  -0.00013   0.19101
   0.00009   0.00008   0.46208
   0.00002   0.00011  -0.46208
 vibration    11
  -0.00000  -0.00004   0.09324
   0.00003   0.00002   0.09324
  -0.00000   0.00000  -0.22544
  -0.00000  -0.00000  -0.22544
  -0.00004   0.00002   0.04500
   0.00006  -0.00004  -0.23160
   0.00004  -0.00002  -0.10890
  -0.00007   0.00004   0.55986
   0.00006  -0.00004  -0.23160
  -0.00004   0.00002   0.04500
  -0.00007   0.00004   0.55986
   0.00004  -0.00002  -0.10890
   0.00003   0.00002   0.09324
  -0.00000  -0.00004   0.09324
  -0.00000  -0.00000  -0.22544
  -0.00000   0.00000  -0.22544
 vibration    12
   0.00002   0.00005  -0.09785
  -0.00004  -0.00005  -0.09785
   0.00002  -0.00002   0.23642
   0.00003  -0.00000   0.23642
   0.00007  -0.00004   0.22977
  -0.00004   0.00003  -0.03409
  -0.00011   0.00006  -0.55526
   0.00005  -0.00003   0.08242
  -0.00004   0.00003  -0.03409
   0.00007  -0.00004   0.22977
   0.00005  -0.00003   0.08242
  -0.00011   0.00006  -0.55526
  -0.00004  -0.00005  -0.09785
   0.00002   0.00005  -0.09785
   0.00003  -0.00000   0.23642
   0.00002  -0.00002   0.23642
 vibration    13
   0.09020   0.15635  -0.00005
   0.09024   0.15633   0.00005
   0.08636   0.14965  -0.00004
   0.08637   0.14965   0.00004
   0.27086  -0.15640  -0.00003
   0.27087  -0.15642  -0.00022
   0.25943  -0.14980  -0.00004
   0.25939  -0.14979   0.00001
  -0.27087   0.15642   0.00022
  -0.27086   0.15640   0.00003
  -0.25939   0.14979  -0.00001
  -0.25943   0.14980   0.00004
  -0.09024  -0.15633  -0.00005
  -0.09020  -0.15635   0.00005
  -0.08637  -0.14965  -0.00004
  -0.08636  -0.14965   0.00004
 vibration    14
  -0.20625   0.22586  -0.00025
  -0.29874   0.06566  -0.00025
  -0.19752   0.21627   0.00002
  -0.28607   0.06289   0.00002
  -0.13040  -0.22580   0.00000
  -0.03792  -0.06561   0.00000
  -0.12485  -0.21618   0.00000
  -0.03628  -0.06279  -0.00000
   0.03792   0.06561  -0.00000
   0.13040   0.22580  -0.00000
   0.03628   0.06279   0.00000
   0.12485   0.21618  -0.00000
   0.29874  -0.06566   0.00025
   0.20625  -0.22586   0.00025
   0.28607  -0.06289  -0.00002
   0.19752  -0.21627  -0.00002
 vibration    15
   0.21711   0.14948   0.00047
  -0.02089  -0.26275   0.00047
   0.20791   0.14317  -0.00013
  -0.02003  -0.25162  -0.00013
  -0.08632  -0.14955   0.00000
   0.15174   0.26279  -0.00000
  -0.08262  -0.14314  -0.00000
   0.14526   0.25157   0.00000
  -0.15174  -0.26279   0.00000
   0.08632   0.14955  -0.00000
  -0.14526  -0.25157  -0.00000
   0.08262   0.14314   0.00000
   0.02089   0.26275  -0.00047
  -0.21711  -0.14948  -0.00047
   0.02003   0.25162   0.00013
  -0.20791  -0.14317   0.00013
 vibration    16
   0.24564   0.11486   0.00012
  -0.02335   0.27017  -0.00012
  -0.23414  -0.10949  -0.00013
   0.02225  -0.25753   0.00013
  -0.06635  -0.11491  -0.00000
  -0.15596  -0.27014  -0.00000
   0.06325   0.10953   0.00000
   0.14866   0.25750  -0.00000
  -0.15596  -0.27014  -0.00000
  -0.06635  -0.11491  -0.00000
   0.14866   0.25750  -0.00000
   0.06325   0.10953   0.00000
  -0.02335   0.27017  -0.00012
   0.24564   0.11486   0.00012
   0.02225  -0.25753   0.00013
  -0.23414  -0.10949  -0.00013
 vibration    17
   0.09026   0.15707   0.00017
  -0.09009  -0.15676   0.00017
  -0.08603  -0.14970  -0.00011
   0.08586   0.14941  -0.00011
   0.27126  -0.15705  -0.00007
  -0.27143   0.15675  -0.00004
  -0.25853   0.14968   0.00004
   0.25870  -0.14940   0.00001
  -0.27143   0.15675  -0.00004
   0.27126  -0.15705  -0.00007
   0.25870  -0.14940   0.00001
  -0.25853   0.14968   0.00004
  -0.09009  -0.15676   0.00017
   0.09026   0.15707   0.00017
   0.08586   0.14941  -0.00011
  -0.08603  -0.14970  -0.00011
 vibration    18
  -0.17254   0.24575   0.00015
   0.29933  -0.02613  -0.00015
   0.16443  -0.23421  -0.00009
  -0.28528   0.02490   0.00009
  -0.14234  -0.24570   0.00000
   0.01555   0.02610   0.00000
   0.13568   0.23421  -0.00000
  -0.01484  -0.02490   0.00000
   0.01555   0.02610   0.00000
  -0.14234  -0.24570   0.00000
  -0.01484  -0.02490   0.00000
   0.13568   0.23421  -0.00000
   0.29933  -0.02613  -0.00015
  -0.17254   0.24575   0.00015
  -0.28528   0.02490   0.00009
   0.16443  -0.23421  -0.00009
 vibration    19
   0.00025   0.00006  -0.48805
   0.00008  -0.00025  -0.48805
   0.00015   0.00009   0.10865
   0.00000  -0.00018   0.10865
   0.00002   0.00004  -0.00000
   0.00021   0.00036  -0.00000
   0.00008   0.00015   0.00000
   0.00023   0.00040   0.00000
  -0.00021  -0.00036   0.00000
  -0.00002  -0.00004   0.00000
  -0.00023  -0.00040  -0.00000
  -0.00008  -0.00015  -0.00000
  -0.00008   0.00025   0.48805
  -0.00025  -0.00006   0.48805
  -0.00000   0.00018  -0.10865
  -0.00015  -0.00009  -0.10865
 vibration    20
   0.00002   0.00002   0.01487
   0.00001   0.00003  -0.01487
   0.00008   0.00009  -0.00331
   0.00004   0.00012   0.00331
   0.00006  -0.00003   0.47273
   0.00007  -0.00004   0.50232
  -0.00001   0.00001  -0.10559
   0.00004  -0.00002  -0.11216
  -0.00007   0.00004  -0.50232
  -0.00006   0.00003  -0.47273
  -0.00004   0.00002   0.11216
   0.00001  -0.00001   0.10559
  -0.00001  -0.00003   0.01487
  -0.00002  -0.00002  -0.01487
  -0.00004  -0.00012  -0.00331
  -0.00008  -0.00009   0.00331
 vibration    21
  -0.00003   0.00001   0.34468
   0.00003  -0.00002  -0.34468
  -0.00009  -0.00003  -0.07699
   0.00002  -0.00009   0.07699
   0.00009  -0.00005  -0.36575
   0.00004  -0.00002   0.32381
   0.00015  -0.00009   0.08172
   0.00002  -0.00001  -0.07231
  -0.00004   0.00002  -0.32381
  -0.00009   0.00005   0.36575
  -0.00002   0.00001   0.07231
  -0.00015   0.00009  -0.08172
  -0.00003   0.00002   0.34468
   0.00003  -0.00001  -0.34468
  -0.00002   0.00009  -0.07699
   0.00009   0.00003   0.07699
 vibration    22
   0.00001  -0.00006   0.47635
  -0.00005  -0.00003  -0.47635
  -0.00001   0.00005   0.15197
   0.00005   0.00002  -0.15197
   0.00004   0.00006   0.00000
   0.00001   0.00002  -0.00000
  -0.00003  -0.00005   0.00000
  -0.00001  -0.00002  -0.00000
   0.00001   0.00002  -0.00000
   0.00004   0.00006   0.00000
  -0.00001  -0.00002  -0.00000
  -0.00003  -0.00005   0.00000
  -0.00005  -0.00003  -0.47635
   0.00001  -0.00006   0.47635
   0.00005   0.00002  -0.15197
  -0.00001   0.00005   0.15197
 vibration    23
   0.00001   0.00000  -0.12930
  -0.00000  -0.00001  -0.12930
  -0.00000   0.00000  -0.04126
  -0.00000  -0.00000  -0.04126
   0.00002  -0.00001  -0.31054
  -0.00002   0.00001   0.56911
  -0.00003   0.00002  -0.09914
   0.00002  -0.00001   0.18168
  -0.00002   0.00001   0.56911
   0.00002  -0.00001  -0.31054
   0.00002  -0.00001   0.18168
  -0.00003   0.00002  -0.09914
  -0.00000  -0.00001  -0.12930
   0.00001   0.00000  -0.12930
  -0.00000  -0.00000  -0.04126
  -0.00000   0.00000  -0.04126
 vibration    24
  -0.00002  -0.00003   0.31100
   0.00001   0.00003   0.31100
   0.00002   0.00004   0.09931
  -0.00002  -0.00003   0.09931
  -0.00005   0.00003  -0.49381
   0.00005  -0.00003  -0.12816
   0.00004  -0.00003  -0.15773
  -0.00004   0.00002  -0.04093
   0.00005  -0.00003  -0.12816
  -0.00005   0.00003  -0.49381
  -0.00004   0.00002  -0.04093
   0.00004  -0.00003  -0.15773
   0.00001   0.00003   0.31100
  -0.00002  -0.00003   0.31100
  -0.00002  -0.00003   0.09931
   0.00002   0.00004   0.09931
 vibration    25
   0.00002   0.00002  -0.27989
  -0.00000  -0.00003  -0.27989
   0.00001  -0.00003   0.21603
   0.00003   0.00001   0.21603
   0.00007  -0.00004  -0.27991
  -0.00010   0.00006  -0.27989
  -0.00004   0.00003   0.21602
   0.00002  -0.00001   0.21595
  -0.00010   0.00006  -0.27989
   0.00007  -0.00004  -0.27991
   0.00002  -0.00001   0.21595
  -0.00004   0.00003   0.21602
  -0.00000  -0.00003  -0.27989
   0.00002   0.00002  -0.27989
   0.00003   0.00001   0.21603
   0.00001  -0.00003   0.21603
 vibration    26
   0.00002   0.00004  -0.27831
   0.00002   0.00003   0.27831
  -0.00001   0.00008  -0.21805
   0.00007   0.00003   0.21805
  -0.00006   0.00003  -0.27826
  -0.00001   0.00000   0.27828
   0.00001  -0.00001  -0.21815
  -0.00008   0.00005   0.21805
   0.00001  -0.00000  -0.27828
   0.00006  -0.00003   0.27826
   0.00008  -0.00005  -0.21805
  -0.00001   0.00001   0.21815
  -0.00002  -0.00003  -0.27831
  -0.00002  -0.00004   0.27831
  -0.00007  -0.00003  -0.21805
   0.00001  -0.00008   0.21805
 vibration    27
   0.03406   0.07851   0.00000
  -0.05096  -0.06876   0.00000
   0.16849   0.38815  -0.00003
  -0.25189  -0.34000  -0.00003
  -0.03387   0.01956   0.00001
   0.05074  -0.02930  -0.00003
  -0.16833   0.09720   0.00004
   0.25174  -0.14536   0.00003
   0.05074  -0.02930  -0.00003
  -0.03387   0.01956   0.00001
   0.25174  -0.14536   0.00003
  -0.16833   0.09720   0.00004
  -0.05096  -0.06876   0.00000
   0.03406   0.07851   0.00000
  -0.25189  -0.34000  -0.00003
   0.16849   0.38815  -0.00003
 vibration    28
  -0.04259   0.02480  -0.00001
   0.04275  -0.02446   0.00001
  -0.21196   0.12243   0.00001
   0.21191  -0.12223  -0.00001
   0.04309   0.07460  -0.00000
  -0.04312  -0.07470  -0.00000
   0.21227   0.36749  -0.00000
  -0.21232  -0.36788   0.00000
  -0.04312  -0.07470  -0.00000
   0.04309   0.07460  -0.00000
  -0.21232  -0.36788   0.00000
   0.21227   0.36749  -0.00000
   0.04275  -0.02446   0.00001
  -0.04259   0.02480  -0.00001
   0.21191  -0.12223  -0.00001
  -0.21196   0.12243   0.00001
 vibration    29
  -0.06627   0.02443  -0.00003
  -0.05431   0.04519  -0.00003
  -0.32662   0.12046   0.00003
  -0.26772   0.22269   0.00003
   0.06624  -0.03827   0.00001
   0.05440  -0.03139  -0.00002
   0.32655  -0.18864  -0.00004
   0.26774  -0.15447   0.00003
   0.05440  -0.03139  -0.00002
   0.06624  -0.03827   0.00001
   0.26774  -0.15447   0.00003
   0.32655  -0.18864  -0.00004
  -0.05431   0.04519  -0.00003
  -0.06627   0.02443  -0.00003
  -0.26772   0.22269   0.00003
  -0.32662   0.12046   0.00003
 vibration    30
   0.02604  -0.01505   0.00028
   0.02606  -0.01502   0.00028
  -0.21448   0.12383  -0.00001
  -0.21448   0.12383  -0.00001
  -0.02656  -0.04600  -0.00000
  -0.02656  -0.04601   0.00000
   0.21504   0.37245  -0.00000
   0.21501   0.37240   0.00000
   0.02656   0.04601  -0.00000
   0.02656   0.04600   0.00000
  -0.21501  -0.37240  -0.00000
  -0.21504  -0.37245   0.00000
  -0.02606   0.01502  -0.00028
  -0.02604   0.01505  -0.00028
   0.21448  -0.12383   0.00001
   0.21448  -0.12383   0.00001
 vibration    31
  -0.01814  -0.04919   0.00015
  -0.03352  -0.04030  -0.00015
   0.14538   0.40137   0.00000
   0.27490   0.32659  -0.00000
   0.01749  -0.01010  -0.00010
   0.03298  -0.01904  -0.00012
  -0.14479   0.08360   0.00007
  -0.27416   0.15829   0.00002
  -0.03298   0.01904   0.00012
  -0.01749   0.01010   0.00010
   0.27416  -0.15829  -0.00002
   0.14479  -0.08360  -0.00007
   0.03352   0.04030   0.00015
   0.01814   0.04919  -0.00015
  -0.27490  -0.32659   0.00000
  -0.14538  -0.40137  -0.00000
 vibration    32
   0.04182  -0.01088  -0.00004
  -0.03033   0.03078   0.00004
  -0.34271   0.09208   0.00008
   0.25110  -0.25076  -0.00008
  -0.04144   0.02393   0.00019
   0.03041  -0.01756  -0.00006
   0.34264  -0.19782  -0.00011
  -0.25152   0.14522  -0.00000
  -0.03041   0.01756   0.00006
   0.04144  -0.02393  -0.00019
   0.25152  -0.14522   0.00000
  -0.34264   0.19782   0.00011
   0.03033  -0.03078  -0.00004
  -0.04182   0.01088   0.00004
  -0.25110   0.25076   0.00008
   0.34271  -0.09208  -0.00008
 vibration    33
   0.16242   0.22291   0.00003
  -0.11184  -0.25212   0.00003
  -0.13098  -0.17959   0.00002
   0.09004   0.20323   0.00002
  -0.12858  -0.22271   0.00000
   0.14561   0.25221   0.00000
   0.10374   0.17968  -0.00000
  -0.11731  -0.20318   0.00000
  -0.14561  -0.25221  -0.00000
   0.12858   0.22271  -0.00000
   0.11731   0.20318  -0.00000
  -0.10374  -0.17968   0.00000
   0.11184   0.25212  -0.00003
  -0.16242  -0.22291  -0.00003
  -0.09004  -0.20323  -0.00002
   0.13098   0.17959  -0.00002
 vibration    34
   0.27879  -0.18847   0.00002
   0.30262  -0.14719   0.00002
  -0.22507   0.15225   0.00000
  -0.24440   0.11878   0.00000
   0.10913   0.18899   0.00000
   0.08514   0.14745   0.00000
  -0.08746  -0.15146   0.00000
  -0.06825  -0.11820   0.00000
  -0.08514  -0.14745  -0.00000
  -0.10913  -0.18899  -0.00000
   0.06825   0.11820  -0.00000
   0.08746   0.15146  -0.00000
  -0.30262   0.14719  -0.00002
  -0.27879   0.18847  -0.00002
   0.24440  -0.11878  -0.00000
   0.22507  -0.15225  -0.00000
 vibration    35
  -0.09701  -0.16833   0.00001
  -0.09725  -0.16819  -0.00001
   0.07801   0.13532  -0.00000
   0.07817   0.13523   0.00000
  -0.29233   0.16879  -0.00000
  -0.29198   0.16858  -0.00000
   0.23570  -0.13609  -0.00001
   0.23561  -0.13604  -0.00001
   0.29198  -0.16858   0.00000
   0.29233  -0.16879   0.00000
  -0.23561   0.13604   0.00001
  -0.23570   0.13609   0.00001
   0.09725   0.16819   0.00001
   0.09701   0.16833  -0.00001
  -0.07817  -0.13523  -0.00000
  -0.07801  -0.13532   0.00000
 vibration    36
   0.05268   0.27475   0.00001
   0.21160   0.18301  -0.00001
   0.04261   0.22258  -0.00002
   0.17146   0.14819   0.00002
  -0.15884  -0.27510   0.00000
  -0.10555  -0.18284   0.00000
  -0.12849  -0.22255  -0.00000
  -0.08549  -0.14809   0.00000
  -0.10555  -0.18284   0.00000
  -0.15884  -0.27510   0.00000
  -0.08549  -0.14809   0.00000
  -0.12849  -0.22255  -0.00000
   0.21160   0.18301  -0.00001
   0.05268   0.27475   0.00001
   0.17146   0.14819   0.00002
   0.04261   0.22258  -0.00002
 vibration    37
  -0.09725  -0.16858  -0.00002
   0.09735   0.16852  -0.00002
  -0.07852  -0.13604   0.00002
   0.07853   0.13603   0.00002
  -0.29131   0.16820  -0.00002
   0.29123  -0.16815  -0.00002
  -0.23613   0.13634   0.00002
   0.23610  -0.13632   0.00001
   0.29123  -0.16815  -0.00002
  -0.29131   0.16820  -0.00002
   0.23610  -0.13632   0.00001
  -0.23613   0.13634   0.00002
   0.09735   0.16852  -0.00002
  -0.09725  -0.16858  -0.00002
   0.07853   0.13603   0.00002
  -0.07852  -0.13604   0.00002
 vibration    38
  -0.31761   0.09683  -0.00001
   0.24267  -0.22663   0.00001
  -0.25769   0.07855   0.00002
   0.19688  -0.18388  -0.00002
  -0.05614  -0.09721  -0.00000
   0.13126   0.22732   0.00000
  -0.04507  -0.07805   0.00000
   0.10575   0.18314  -0.00000
   0.13126   0.22732   0.00000
  -0.05614  -0.09721  -0.00000
   0.10575   0.18314  -0.00000
  -0.04507  -0.07805   0.00000
   0.24267  -0.22663   0.00001
  -0.31761   0.09683  -0.00001
   0.19688  -0.18388  -0.00002
  -0.25769   0.07855   0.00002
 vibration    39
  -0.23936   0.26583  -0.00000
   0.34989  -0.07438   0.00000
  -0.02231   0.02484   0.00001
   0.03266  -0.00690  -0.00001
   0.23934  -0.13819   0.00005
  -0.35006   0.20210  -0.00003
   0.02246  -0.01297  -0.00007
  -0.03265   0.01885   0.00002
   0.35006  -0.20210   0.00003
  -0.23934   0.13819  -0.00005
   0.03265  -0.01885  -0.00002
  -0.02246   0.01297   0.00007
  -0.34989   0.07438  -0.00000
   0.23936  -0.26583   0.00000
  -0.03266   0.00690   0.00001
   0.02231  -0.02484  -0.00001
 vibration    40
  -0.28651  -0.31589  -0.00008
  -0.13031  -0.40607   0.00008
  -0.02699  -0.02982   0.00000
  -0.01234  -0.03828  -0.00000
   0.28636  -0.16533   0.00002
   0.12984  -0.07496  -0.00000
   0.02730  -0.01576  -0.00006
   0.01233  -0.00712   0.00003
  -0.12984   0.07496   0.00000
  -0.28636   0.16533  -0.00002
  -0.01233   0.00712  -0.00003
  -0.02730   0.01576   0.00006
   0.13031   0.40607  -0.00008
   0.28651   0.31589   0.00008
   0.01234   0.03828   0.00000
   0.02699   0.02982  -0.00000
 vibration    41
   0.21581  -0.12449  -0.00013
   0.21571  -0.12465  -0.00013
   0.02022  -0.01169   0.00002
   0.02023  -0.01166   0.00002
  -0.21547  -0.37321   0.00000
  -0.21545  -0.37318   0.00000
  -0.02051  -0.03552   0.00000
  -0.02057  -0.03563   0.00000
   0.21545   0.37318  -0.00000
   0.21547   0.37321  -0.00000
   0.02057   0.03563  -0.00000
   0.02051   0.03552  -0.00000
  -0.21571   0.12465   0.00013
  -0.21581   0.12449   0.00013
  -0.02023   0.01166  -0.00002
  -0.02022   0.01169  -0.00002
 vibration    42
   0.27745   0.32053  -0.00001
  -0.13885  -0.40055  -0.00001
  -0.04340  -0.05006   0.00001
   0.02166   0.06262   0.00001
  -0.27775   0.16037  -0.00002
   0.13914  -0.08034   0.00000
   0.04318  -0.02493   0.00001
  -0.02143   0.01238   0.00000
   0.13914  -0.08034   0.00000
  -0.27775   0.16037  -0.00002
  -0.02143   0.01238   0.00000
   0.04318  -0.02493   0.00001
  -0.13885  -0.40055  -0.00001
   0.27745   0.32053  -0.00001
   0.02166   0.06262   0.00001
  -0.04340  -0.05006   0.00001
 vibration    43
  -0.21423   0.12367  -0.00001
   0.21427  -0.12370   0.00001
   0.03315  -0.01908   0.00001
  -0.03311   0.01917  -0.00001
   0.21374   0.37024   0.00000
  -0.21386  -0.37036   0.00000
  -0.03354  -0.05810  -0.00000
   0.03357   0.05813  -0.00000
  -0.21386  -0.37036   0.00000
   0.21374   0.37024   0.00000
   0.03357   0.05813  -0.00000
  -0.03354  -0.05810  -0.00000
   0.21427  -0.12370   0.00001
  -0.21423   0.12367  -0.00001
  -0.03311   0.01917  -0.00001
   0.03315  -0.01908   0.00001
 vibration    44
   0.24545  -0.25484   0.00001
   0.34339  -0.08513   0.00001
  -0.03843   0.03987   0.00000
  -0.05374   0.01334   0.00000
  -0.24539   0.14164   0.00002
  -0.34358   0.19840   0.00001
   0.03858  -0.02227  -0.00003
   0.05369  -0.03101  -0.00000
  -0.34358   0.19840   0.00001
  -0.24539   0.14164   0.00002
   0.05369  -0.03101  -0.00000
   0.03858  -0.02227  -0.00003
   0.34339  -0.08513   0.00001
   0.24545  -0.25484   0.00001
  -0.05374   0.01334   0.00000
  -0.03843   0.03987   0.00000
 vibration    45
  -0.14003  -0.24243  -0.00001
  -0.13993  -0.24249   0.00001
   0.10787   0.18709   0.00002
   0.10808   0.18696  -0.00002
  -0.13996  -0.24242   0.00000
  -0.13985  -0.24224   0.00000
   0.10806   0.18717  -0.00000
   0.10800   0.18706  -0.00000
  -0.13985  -0.24224   0.00000
  -0.13996  -0.24242   0.00000
   0.10800   0.18706  -0.00000
   0.10806   0.18717  -0.00000
  -0.13993  -0.24249   0.00001
  -0.14003  -0.24243  -0.00001
   0.10808   0.18696  -0.00002
   0.10787   0.18709   0.00002
 vibration    46
   0.24244  -0.13997  -0.00001
   0.24245  -0.13997  -0.00001
  -0.18705   0.10801   0.00001
  -0.18707   0.10798   0.00001
   0.24236  -0.13992  -0.00001
   0.24234  -0.13991  -0.00000
  -0.18709   0.10801   0.00002
  -0.18708   0.10801  -0.00003
   0.24234  -0.13991  -0.00000
   0.24236  -0.13992  -0.00001
  -0.18708   0.10801  -0.00003
  -0.18709   0.10801   0.00002
   0.24245  -0.13997  -0.00001
   0.24244  -0.13997  -0.00001
  -0.18707   0.10798   0.00001
  -0.18705   0.10801   0.00001
 vibration    47
   0.13974   0.24231  -0.00000
  -0.13996  -0.24218  -0.00000
   0.10818   0.18723   0.00000
  -0.10805  -0.18731   0.00000
   0.13987   0.24227   0.00000
  -0.13986  -0.24227   0.00000
   0.10812   0.18728  -0.00000
  -0.10807  -0.18720  -0.00000
   0.13986   0.24227  -0.00000
  -0.13987  -0.24227  -0.00000
   0.10807   0.18720   0.00000
  -0.10812  -0.18728   0.00000
   0.13996   0.24218   0.00000
  -0.13974  -0.24231   0.00000
   0.10805   0.18731  -0.00000
  -0.10818  -0.18723  -0.00000
 vibration    48
  -0.24240   0.13980  -0.00001
   0.24228  -0.14001   0.00001
  -0.18740   0.10805   0.00002
   0.18728  -0.10825  -0.00002
  -0.24209   0.13976  -0.00001
   0.24229  -0.13988   0.00001
  -0.18713   0.10803   0.00002
   0.18716  -0.10805  -0.00003
  -0.24229   0.13988  -0.00001
   0.24209  -0.13976   0.00001
  -0.18716   0.10805   0.00003
   0.18713  -0.10803  -0.00002
  -0.24228   0.14001  -0.00001
   0.24240  -0.13980   0.00001
  -0.18728   0.10825   0.00002
   0.18740  -0.10805  -0.00002
