
                           ***********************       
                           *  WELCOME TO SIESTA  *       
                           ***********************       

reinit: Reading from standard input
reinit: Dumped input in INPUT_TMP.72866
************************** Dump of input data file ****************************
SystemName            nzeta
SystemLabel           nzeta
NumberOfSpecies         2
NumberOfAtoms          16
%block Chemical_Species_label
   1   5     B
   2   7     N
%endblock Chemical_Species_label
PAO.BasisType         split
PAO.BasisSize         DZP
PAO.EnergyShift       50  meV
LatticeConstant      1.0   Ang
#%block LatticeParameters
#4.7890    4.7890    4.1537   90.0000   90.0000  120.0000
#%endblock LatticeParameters
%block LatticeVectors
    5.012954616    0.000024807    0.000000115
   -2.506455827    4.341358452   -0.000000115
    0.000000145   -0.000000085    6.336166021
%endblock LatticeVectors
MeshCutoff            200. Ry       # Mesh cutoff. real space mesh
kgrid_cutoff        20. Ang
#%block kgrid_Monkhorst_Pack
# 1  0  0  0.0
# 0  1  0  0.0
# 0  0  1  0.0
#%endblock kgrid_Monkhorst_Pack
#
BandLinesScale  pi/a
#
XC.Functional          GGA
XC.Authors             PBE
MaxSCFIterations       200
DM.NumberPulay         10           # One Pulay every 5 iter
DM.MixingWeight       0.30          # New DM amount for next SCF cycle
DM.Tolerance          1.0d-5        # Tolerance in maximum difference
DM.UseSaveDM          true          # to use continuae..ion files
Diag.DivideAndConquer   false
Diag.ParallelOverK      true
SolutionMethod        diagon        # OrderN or Diagon
ElectronicTemperature  25 meV       # Temp. for Fermi smearing
# SpinPolarized         true
# MD options
MD.VariableCell        TRUE
MD.TypeOfRun           CG
MD.NumCGsteps          100
MD.MaxCGDispl          0.01 Ang
MD.MaxForceTol         0.008 eV/Ang
MD.TargetPressure      5.0 GPa
MD.MaxStressTol        0.05 GPa
%block AtomicCoordinateOrigin
0.000 0.000 0.000
%endblock AtomicCoordinateOrigin
WriteDM                true
WriteEigenvalues       true
WriteCoorXmol          true
WriteMDXmol            true
WriteMDHistory         true
WriteXml               false
MD.UseSaveCG           true
MD.UseSaveXV           true
# Atomic  inates
AtomicCoordinatesFormat  Ang    # Format for  inates
AtomCoorFormatOut        Ang
%block AtomicCoordinatesAndAtomicSpecies
 0.00002     1.44712     1.28428     1
 1.25323     0.72357     4.45189     1
 0.00002     1.44712     5.05195     2
 1.25323     0.72357     1.88422     2
 2.50649     1.44713     1.28428     1
 3.75971     0.72359     4.45189     1
 2.50649     1.44713     5.05195     2
 3.75971     0.72359     1.88422     2
-1.25321     3.61780     1.28428     1
 0.00001     2.89425     4.45189     1
-1.25321     3.61780     5.05195     2
 0.00001     2.89425     1.88422     2
 1.25327     3.61781     1.28428     1
 2.50648     2.89426     4.45189     1
 1.25327     3.61781     5.05195     2
 2.50648     2.89426     1.88422     2
%endblock AtomicCoordinatesAndAtomicSpecies
************************** End of input data file *****************************

reinit: -----------------------------------------------------------------------
reinit: System Name: nzeta
reinit: -----------------------------------------------------------------------
reinit: System Label: nzeta
reinit: -----------------------------------------------------------------------
Siesta Version: siesta-4.1--736
Architecture  : unknown
Compiler flags: mpifort -fPIC -O2 -xCore-AVX2 -ftz -fp-speculation=safe -fp-model source
PP flags      : -DFC_HAVE_ABORT -DMPI -DCDF -I/cvmfs/soft.computecanada.ca/easybuild/softwaree/2017/avx2/Compiler/intel2018.3/netcdf-fortran/4.4.4/include
Libraries     : -Wl,-Bstatic -Wl,--start-group -lmkl_scalapack_lp64 -lmkl_blacs_openmpi_lp64  -lmkl_intel_lp64 -lmkl_sequential -lmkl_core -Wl,--end-group -Wl,-Bdynamic -lnetcdff
PARALLEL version
NetCDF support

* Running on 8 nodes in parallel
>> Start of run:  24-NOV-2020  12:48:29

initatom: Reading input for the pseudopotentials and atomic orbitals ----------
Species number:   1 Atomic number:    5 Label: B
Species number:   2 Atomic number:    7 Label: N
 
Ground state valence configuration:   2s02  2p01
Reading pseudopotential information in formatted form from B.psf

Valence configuration for pseudopotential generation:
2s( 2.00) rc: 1.74
2p( 1.00) rc: 1.74
3d( 0.00) rc: 1.74
4f( 0.00) rc: 1.74
Ground state valence configuration:   2s02  2p03
Reading pseudopotential information in formatted form from N.psf

Valence configuration for pseudopotential generation:
2s( 2.00) rc: 1.48
2p( 3.00) rc: 1.48
3d( 0.00) rc: 1.48
4f( 0.00) rc: 1.48
For B, standard SIESTA heuristics set lmxkb to 3
 (one more than the basis l, including polarization orbitals).
Use PS.lmax or PS.KBprojectors blocks to override.
For N, standard SIESTA heuristics set lmxkb to 3
 (one more than the basis l, including polarization orbitals).
Use PS.lmax or PS.KBprojectors blocks to override.

<basis_specs>
===============================================================================
B                    Z=   5    Mass=  10.810        Charge= 0.17977+309
Lmxo=1 Lmxkb= 3    BasisType=split      Semic=F
L=0  Nsemic=0  Cnfigmx=2
          n=1  nzeta=2  polorb=0
            splnorm:   0.15000    
               vcte:    0.0000    
               rinn:    0.0000    
               qcoe:    0.0000    
               qyuk:    0.0000    
               qwid:   0.10000E-01
                rcs:    0.0000      0.0000    
            lambdas:    1.0000      1.0000    
L=1  Nsemic=0  Cnfigmx=2
          n=1  nzeta=2  polorb=1
            splnorm:   0.15000    
               vcte:    0.0000    
               rinn:    0.0000    
               qcoe:    0.0000    
               qyuk:    0.0000    
               qwid:   0.10000E-01
                rcs:    0.0000      0.0000    
            lambdas:    1.0000      1.0000    
-------------------------------------------------------------------------------
L=0  Nkbl=1  erefs: 0.17977+309
L=1  Nkbl=1  erefs: 0.17977+309
L=2  Nkbl=1  erefs: 0.17977+309
L=3  Nkbl=1  erefs: 0.17977+309
===============================================================================
</basis_specs>

atom: Called for B                     (Z =   5)

read_vps: Pseudopotential generation method:
read_vps: ATM3      Troullier-Martins                       
Total valence charge:    3.00000

read_vps: Pseudopotential includes a core correction:
read_vps: Pseudo-core for xc-correction

xc_check: Exchange-correlation functional:
xc_check: GGA Perdew, Burke & Ernzerhof 1996
V l=0 = -2*Zval/r beyond r=  1.7165
V l=1 = -2*Zval/r beyond r=  1.7165
V l=2 = -2*Zval/r beyond r=  1.7165
V l=3 = -2*Zval/r beyond r=  1.6951
All V_l potentials equal beyond r=  1.7165
This should be close to max(r_c) in ps generation
All pots = -2*Zval/r beyond r=  1.7165

VLOCAL1: 99.0% of the norm of Vloc inside     14.733 Ry
VLOCAL1: 99.9% of the norm of Vloc inside     33.577 Ry
atom: Maximum radius for 4*pi*r*r*local-pseudopot. charge    2.04484
atom: Maximum radius for r*vlocal+2*Zval:    1.75994
GHOST: No ghost state for L =  0
GHOST: No ghost state for L =  1
GHOST: No ghost state for L =  2
GHOST: No ghost state for L =  3

KBgen: Kleinman-Bylander projectors: 
   l= 0   rc=  1.897051   el= -0.693730   Ekb=  4.595746   kbcos=  0.286105
   l= 1   rc=  1.920920   el= -0.265236   Ekb= -2.350715   kbcos= -0.315747
   l= 2   rc=  2.044840   el=  0.002055   Ekb= -0.690767   kbcos= -0.013822
   l= 3   rc=  2.149707   el=  0.003188   Ekb= -0.315358   kbcos= -0.002055

KBgen: Total number of  Kleinman-Bylander projectors:   16
atom: -------------------------------------------------------------------------

atom: SANKEY-TYPE ORBITALS:
atom: Selected multiple-zeta basis: split     

SPLIT: Orbitals with angular momentum L= 0

SPLIT: Basis orbitals for state 2s

SPLIT: PAO cut-off radius determined from an
SPLIT: energy shift=  0.003675 Ry

   izeta = 1
                 lambda =    1.000000
                     rc =    5.992324
                 energy =   -0.690528
                kinetic =    0.558121
    potential(screened) =   -1.248649
       potential(ionic) =   -3.246844

   izeta = 2
                 rmatch =    4.275693
              splitnorm =    0.150000
                 energy =   -0.596762
                kinetic =    0.870329
    potential(screened) =   -1.467091
       potential(ionic) =   -3.591550

SPLIT: Orbitals with angular momentum L= 1

SPLIT: Basis orbitals for state 2p

SPLIT: PAO cut-off radius determined from an
SPLIT: energy shift=  0.003675 Ry

   izeta = 1
                 lambda =    1.000000
                     rc =    7.504449
                 energy =   -0.261978
                kinetic =    1.444196
    potential(screened) =   -1.706173
       potential(ionic) =   -3.607531

   izeta = 2
                 rmatch =    4.725423
              splitnorm =    0.150000
                 energy =   -0.178742
                kinetic =    2.159898
    potential(screened) =   -2.338640
       potential(ionic) =   -4.437503

POLgen: Perturbative polarization orbital with L=  2

POLgen: Polarization orbital for state 2p

   izeta = 1
                     rc =    7.504449
                 energy =    0.624150
                kinetic =    1.361189
    potential(screened) =   -0.737039
       potential(ionic) =   -2.313842
atom: Total number of Sankey-type orbitals: 13

atm_pop: Valence configuration (for local Pseudopot. screening):
 2s( 2.00)                                                            
 2p( 1.00)                                                            
Vna: chval, zval:    3.00000   3.00000

Vna:  Cut-off radius for the neutral-atom potential:   7.504449
comcore: Pseudo-core radius Rcore=  2.122997

atom: _________________________________________________________________________

<basis_specs>
===============================================================================
N                    Z=   7    Mass=  14.010        Charge= 0.17977+309
Lmxo=1 Lmxkb= 3    BasisType=split      Semic=F
L=0  Nsemic=0  Cnfigmx=2
          n=1  nzeta=2  polorb=0
            splnorm:   0.15000    
               vcte:    0.0000    
               rinn:    0.0000    
               qcoe:    0.0000    
               qyuk:    0.0000    
               qwid:   0.10000E-01
                rcs:    0.0000      0.0000    
            lambdas:    1.0000      1.0000    
L=1  Nsemic=0  Cnfigmx=2
          n=1  nzeta=2  polorb=1
            splnorm:   0.15000    
               vcte:    0.0000    
               rinn:    0.0000    
               qcoe:    0.0000    
               qyuk:    0.0000    
               qwid:   0.10000E-01
                rcs:    0.0000      0.0000    
            lambdas:    1.0000      1.0000    
-------------------------------------------------------------------------------
L=0  Nkbl=1  erefs: 0.17977+309
L=1  Nkbl=1  erefs: 0.17977+309
L=2  Nkbl=1  erefs: 0.17977+309
L=3  Nkbl=1  erefs: 0.17977+309
===============================================================================
</basis_specs>

atom: Called for N                     (Z =   7)

read_vps: Pseudopotential generation method:
read_vps: ATM3      Troullier-Martins                       
Total valence charge:    5.00000

read_vps: Pseudopotential includes a core correction:
read_vps: Pseudo-core for xc-correction

xc_check: Exchange-correlation functional:
xc_check: GGA Perdew, Burke & Ernzerhof 1996
V l=0 = -2*Zval/r beyond r=  1.4606
V l=1 = -2*Zval/r beyond r=  1.4606
V l=2 = -2*Zval/r beyond r=  1.4606
V l=3 = -2*Zval/r beyond r=  1.4606
All V_l potentials equal beyond r=  1.4606
This should be close to max(r_c) in ps generation
All pots = -2*Zval/r beyond r=  1.4606

VLOCAL1: 99.0% of the norm of Vloc inside     20.347 Ry
VLOCAL1: 99.9% of the norm of Vloc inside     46.372 Ry
atom: Maximum radius for 4*pi*r*r*local-pseudopot. charge    1.76189
atom: Maximum radius for r*vlocal+2*Zval:    1.53550
GHOST: No ghost state for L =  0
GHOST: No ghost state for L =  1
GHOST: No ghost state for L =  2
GHOST: No ghost state for L =  3

KBgen: Kleinman-Bylander projectors: 
   l= 0   rc=  1.634559   el= -1.363963   Ekb=  5.296955   kbcos=  0.335621
   l= 1   rc=  1.614250   el= -0.521451   Ekb= -5.259161   kbcos= -0.433408
   l= 2   rc=  1.718383   el=  0.001991   Ekb= -1.271464   kbcos= -0.007566
   l= 3   rc=  1.761893   el=  0.003093   Ekb= -0.494769   kbcos= -0.001015

KBgen: Total number of  Kleinman-Bylander projectors:   16
atom: -------------------------------------------------------------------------

atom: SANKEY-TYPE ORBITALS:
atom: Selected multiple-zeta basis: split     

SPLIT: Orbitals with angular momentum L= 0

SPLIT: Basis orbitals for state 2s

SPLIT: PAO cut-off radius determined from an
SPLIT: energy shift=  0.003675 Ry

   izeta = 1
                 lambda =    1.000000
                     rc =    4.388595
                 energy =   -1.360245
                kinetic =    1.158929
    potential(screened) =   -2.519174
       potential(ionic) =   -8.027872

   izeta = 2
                 rmatch =    2.941647
              splitnorm =    0.150000
                 energy =   -1.183606
                kinetic =    1.761198
    potential(screened) =   -2.944804
       potential(ionic) =   -8.851642

SPLIT: Orbitals with angular momentum L= 1

SPLIT: Basis orbitals for state 2p

SPLIT: PAO cut-off radius determined from an
SPLIT: energy shift=  0.003675 Ry

   izeta = 1
                 lambda =    1.000000
                     rc =    5.496027
                 energy =   -0.517878
                kinetic =    3.386838
    potential(screened) =   -3.904716
       potential(ionic) =   -9.203549

   izeta = 2
                 rmatch =    3.092486
              splitnorm =    0.150000
                 energy =   -0.339364
                kinetic =    5.009477
    potential(screened) =   -5.348841
       potential(ionic) =  -11.257254

POLgen: Perturbative polarization orbital with L=  2

POLgen: Polarization orbital for state 2p

   izeta = 1
                     rc =    5.496027
                 energy =    1.497880
                kinetic =    3.066405
    potential(screened) =   -1.568525
       potential(ionic) =   -5.774358
atom: Total number of Sankey-type orbitals: 13

atm_pop: Valence configuration (for local Pseudopot. screening):
 2s( 2.00)                                                            
 2p( 3.00)                                                            
Vna: chval, zval:    5.00000   5.00000

Vna:  Cut-off radius for the neutral-atom potential:   5.496027
comcore: Pseudo-core radius Rcore=  1.554824

atom: _________________________________________________________________________

prinput: Basis input ----------------------------------------------------------

PAO.BasisType split     

%block ChemicalSpeciesLabel
    1    5 B                       # Species index, atomic number, species label
    2    7 N                       # Species index, atomic number, species label
%endblock ChemicalSpeciesLabel

%block PAO.Basis                 # Define Basis set
B                     2                    # Species label, number of l-shells
 n=2   0   2                         # n, l, Nzeta 
   5.992      4.276   
   1.000      1.000   
 n=2   1   2 P   1                   # n, l, Nzeta, Polarization, NzetaPol
   7.504      4.725   
   1.000      1.000   
N                     2                    # Species label, number of l-shells
 n=2   0   2                         # n, l, Nzeta 
   4.389      2.942   
   1.000      1.000   
 n=2   1   2 P   1                   # n, l, Nzeta, Polarization, NzetaPol
   5.496      3.092   
   1.000      1.000   
%endblock PAO.Basis

prinput: ----------------------------------------------------------------------

Dumping basis to NetCDF file B.ion.nc
Dumping basis to NetCDF file N.ion.nc
coor:   Atomic-coordinates input format  =     Cartesian coordinates
coor:                                          (in Angstroms)

siesta: WARNING: XV file not found

siesta: Atomic coordinates (Bohr) and species
siesta:      0.00004   2.73466   2.42694  1        1
siesta:      2.36826   1.36735   8.41286  1        2
siesta:      0.00004   2.73466   9.54681  2        3
siesta:      2.36826   1.36735   3.56066  2        4
siesta:      4.73658   2.73468   2.42694  1        5
siesta:      7.10483   1.36739   8.41286  1        6
siesta:      4.73658   2.73468   9.54681  2        7
siesta:      7.10483   1.36739   3.56066  2        8
siesta:     -2.36822   6.83665   2.42694  1        9
siesta:      0.00002   5.46934   8.41286  1       10
siesta:     -2.36822   6.83665   9.54681  2       11
siesta:      0.00002   5.46934   3.56066  2       12
siesta:      2.36834   6.83667   2.42694  1       13
siesta:      4.73656   5.46936   8.41286  1       14
siesta:      2.36834   6.83667   9.54681  2       15
siesta:      4.73656   5.46936   3.56066  2       16

siesta: System type = bulk      

initatomlists: Number of atoms, orbitals, and projectors:     16   208   256

coxmol: Writing XMOL coordinates into file nzeta.xyz                                                           

siesta: ******************** Simulation parameters ****************************
siesta:
siesta: The following are some of the parameters of the simulation.
siesta: A complete list of the parameters used, including default values,
siesta: can be found in file out.fdf
siesta:
redata: Spin configuration                          = none
redata: Number of spin components                   = 1
redata: Time-Reversal Symmetry                      = T
redata: Spin-spiral                                 = F
redata: Long output                                 =   F
redata: Number of Atomic Species                    =        2
redata: Charge density info will appear in .RHO file
redata: Write Mulliken Pop.                         = NO
redata: Mesh Cutoff                                 =   200.0000 Ry
redata: Net charge of the system                    =     0.0000 |e|
redata: Min. number of SCF Iter                     =        0
redata: Max. number of SCF Iter                     =      200
redata: SCF mix quantity                            = Hamiltonian
redata: Mix DM or H after convergence               =   F
redata: Recompute H after scf cycle                 =   F
redata: Mix DM in first SCF step                    =   T
redata: Write Pulay info on disk                    =   F
redata: New DM Mixing Weight                        =     0.3000
redata: New DM Occupancy tolerance                  = 0.000000000001
redata: No kicks to SCF
redata: DM Mixing Weight for Kicks                  =     0.5000
redata: Require Harris convergence for SCF          =   F
redata: Harris energy tolerance for SCF             =     0.000100 eV
redata: Require DM convergence for SCF              =   T
redata: DM tolerance for SCF                        =     0.0000
redata: Require EDM convergence for SCF             =   F
redata: EDM tolerance for SCF                       =     0.001000 eV
redata: Require H convergence for SCF               =   T
redata: Hamiltonian tolerance for SCF               =     0.001000 eV
redata: Require (free) Energy convergence for SCF   =   F
redata: (free) Energy tolerance for SCF             =     0.000100 eV
redata: Using Saved Data (generic)                  =   F
redata: Use continuation files for DM               =   T
redata: Neglect nonoverlap interactions             =   F
redata: Method of Calculation                       = Diagonalization
redata: Divide and Conquer                          =   F
redata: Electronic Temperature                      =   290.1109 K
redata: Fix the spin of the system                  =   F
redata: Dynamics option                             = CG coord. optimization
redata: Variable cell                               =   T
redata: Use continuation files for CG               =   T
redata: Max atomic displ per move                   =     0.0100 Ang
redata: Maximum number of CG moves                  =      100
redata: Force tolerance                             =     0.0080 eV/Ang
redata: Stress tolerance                            =     0.0500 GPa
mix.SCF: Pulay mixing                            = Pulay
mix.SCF:    Variant                              = stable
mix.SCF:    History steps                        = 10
mix.SCF:    Linear mixing weight                 =     0.300000
mix.SCF:    Mixing weight                        =     0.300000
mix.SCF:    SVD condition                        = 0.1000E-07
redata: ***********************************************************************

%block SCF.Mixers
  Pulay
%endblock SCF.Mixers

%block SCF.Mixer.Pulay
  # Mixing method
  method pulay
  variant stable

  # Mixing options
  weight 0.3000
  weight.linear 0.3000
  history 10
%endblock SCF.Mixer.Pulay
 
DM_history_depth set to one: no extrapolation allowed by default for geometry relaxation
Size of DM history Fstack: 1
Total number of electrons:    64.000000
Total ionic charge:    64.000000

* ProcessorY, Blocksize:    2  24


* Orbital distribution balance (max,min):    40    24

 Kpoints in:          224 . Kpoints trimmed:          224

siesta: k-grid: Number of k-points =   224
siesta: k-grid: Cutoff (effective) =    20.052 Ang
siesta: k-grid: Supercell and displacements
siesta: k-grid:    8   0   0      0.500
siesta: k-grid:    0   8   0      0.500
siesta: k-grid:    0   0   7      0.000

superc: Internal auxiliary supercell:     5 x     5 x     3  =      75
superc: Number of atoms, orbitals, and projectors:   1200  15600  19200
 

                     ====================================
                        Begin CG opt. move =      0
                     ====================================

superc: Internal auxiliary supercell:     5 x     5 x     3  =      75
superc: Number of atoms, orbitals, and projectors:   1200  15600  19200

outcell: Unit cell vectors (Ang):
        5.012955    0.000025    0.000000
       -2.506456    4.341358   -0.000000
        0.000000   -0.000000    6.336166

outcell: Cell vector modules (Ang)   :    5.012955    5.012955    6.336166
outcell: Cell angles (23,13,12) (deg):     90.0000     90.0000    119.9994
outcell: Cell volume (Ang**3)        :    137.8946
<dSpData1D:S at geom step 0
  <sparsity:sparsity for geom step 0
    nrows_g=208 nrows=40 sparsity=2.7103 nnzs=117257, refcount: 7>
  <dData1D:(new from dSpData1D) n=117257, refcount: 1>
refcount: 1>
new_DM -- step:     1
Initializing Density Matrix...
 
Attempting to read DM from file... Failed...
DM filled with atomic data:
<dSpData2D:DM initialized from atoms
  <sparsity:sparsity for geom step 0
    nrows_g=208 nrows=40 sparsity=2.7103 nnzs=117257, refcount: 8>
  <dData2D:DM n=117257 m=1, refcount: 1>
refcount: 1>
 
No. of atoms with KB's overlaping orbs in proc 0. Max # of overlaps:     112     592
New grid distribution:   1
           1       1:   20    1:   10    1:    7
           2       1:   20    1:   10    8:   14
           3       1:   20    1:   10   15:   21
           4       1:   20    1:   10   22:   27
           5       1:   20   11:   20    1:    7
           6       1:   20   11:   20    8:   14
           7       1:   20   11:   20   15:   21
           8       1:   20   11:   20   22:   27

InitMesh: MESH =    40 x    40 x    54 =       86400
InitMesh: (bp) =    20 x    20 x    27 =       10800
InitMesh: Mesh cutoff (required, used) =   200.000   200.741 Ry
ExtMesh (bp) on 0 =    96 x    86 x    75 =      619200
New grid distribution:   2
           1       1:   10   11:   20   14:   27
           2      11:   20    1:   10    1:   13
           3      11:   20    1:   10   14:   27
           4      11:   20   11:   20    1:   13
           5       1:   10    1:   10   14:   27
           6       1:   10    1:   10    1:   13
           7      11:   20   11:   20   14:   27
           8       1:   10   11:   20    1:   13
New grid distribution:   3
           1      11:   20   11:   20    1:   14
           2       1:   10    1:   10    1:   14
           3      11:   20   11:   20   15:   27
           4       1:   10    1:   10   15:   27
           5       1:   10   11:   20    1:   14
           6      11:   20    1:   10    1:   14
           7       1:   10   11:   20   15:   27
           8      11:   20    1:   10   15:   27
Setting up quadratic distribution...
ExtMesh (bp) on 0 =    86 x    86 x    82 =      606472
PhiOnMesh: Number of (b)points on node 0 =                 1400
PhiOnMesh: nlist on node 0 =               302061

stepf: Fermi-Dirac step function

siesta: Program's energy decomposition (eV):
siesta: Ebs     =      -743.495050
siesta: Eions   =      4351.079080
siesta: Ena     =       802.761628
siesta: Ekin    =      2045.820117
siesta: Enl     =      -339.745824
siesta: Eso     =         0.000000
siesta: Eldau   =         0.000000
siesta: DEna    =      -126.985322
siesta: DUscf   =        29.414691
siesta: DUext   =         0.000000
siesta: Exc     =     -1124.685200
siesta: eta*DQ  =         0.000000
siesta: Emadel  =         0.000000
siesta: Emeta   =         0.000000
siesta: Emolmec =         0.000000
siesta: Ekinion =         0.000000
siesta: Eharris =     -3010.180047
siesta: Etot    =     -3064.498991
siesta: FreeEng =     -3064.498991

        iscf     Eharris(eV)        E_KS(eV)     FreeEng(eV)     dDmax    Ef(eV) dHmax(eV)
   scf:    1    -3010.180047    -3064.498991    -3064.498991  1.606514 -7.537625  6.602675
timer: Routine,Calls,Time,% = IterSCF        1       4.627  47.02
   scf:    2    -3082.671974    -3077.002599    -3077.002599  0.073032 -7.227378  1.189161
   scf:    3    -3077.590781    -3077.354416    -3077.354416  0.033239 -6.980584  0.417477
   scf:    4    -3077.496566    -3077.438567    -3077.438569  0.036471 -6.853568  0.041627
   scf:    5    -3077.438869    -3077.439351    -3077.439353  0.003158 -6.852250  0.029198
   scf:    6    -3077.440034    -3077.439837    -3077.439840  0.001148 -6.855518  0.002167
   scf:    7    -3077.439848    -3077.439843    -3077.439846  0.000143 -6.856063  0.001216
   scf:    8    -3077.439854    -3077.439849    -3077.439851  0.000337 -6.857354  0.000586
   scf:    9    -3077.439849    -3077.439849    -3077.439851  0.000037 -6.857493  0.000405
   scf:   10    -3077.439849    -3077.439849    -3077.439852  0.000025 -6.857545  0.000038
   scf:   11    -3077.439849    -3077.439849    -3077.439852  0.000002 -6.857553  0.000023

SCF Convergence by DM+H criterion
max |DM_out - DM_in|         :     0.0000022239
max |H_out - H_in|      (eV) :     0.0000225160
SCF cycle converged after 11 iterations

Using DM_out to compute the final energy and forces
No. of atoms with KB's overlaping orbs in proc 0. Max # of overlaps:     112     592

siesta: E_KS(eV) =            -3077.4398

siesta: E_KS - E_eggbox =     -3077.4398

siesta: Atomic forces (eV/Ang):
----------------------------------------
   Tot   -0.000014    0.000012    0.034193
----------------------------------------
   Max    6.866201
   Res    3.962572    sqrt( Sum f_i^2 / 3N )
----------------------------------------
   Max    6.866201    constrained

Stress-tensor-Voigt (kbar):      -34.23      -29.26      636.85        4.31       -0.00        0.00
(Free)E + p*V (eV/cell)    -3093.8887
Target enthalpy (eV/cell)    -3073.1365

siesta: Stress tensor (static) (eV/Ang**3):
        -0.021366    0.002687    0.000000
         0.002687   -0.018264   -0.000000
         0.000000   -0.000000    0.397488

siesta: Pressure (static):       -191.11918652  kBar

siesta: Stress tensor (total) (eV/Ang**3):
        -0.021366    0.002687    0.000000
         0.002687   -0.018264   -0.000000
         0.000000   -0.000000    0.397488

siesta: Pressure (total):       -191.11918652  kBar

cgvc: No target stress found, assuming hydrostatic MD.TargetPressure.

cgvc: Target stress (kBar)
cgvc:       -50.000       0.000       0.000
cgvc:         0.000     -50.000       0.000
cgvc:         0.000       0.000     -50.000

cgvc: WARNING: CG file not found

                     ====================================
                        Begin CG opt. move =      1
                     ====================================
 Kpoints in:          224 . Kpoints trimmed:          224

siesta: k-grid: Number of k-points =   224
siesta: k-grid: Cutoff (effective) =    20.051 Ang
siesta: k-grid: Supercell and displacements
siesta: k-grid:    8   8   0      0.500
siesta: k-grid:    8   0   0      0.500
siesta: k-grid:    0   0   7      0.000

superc: Internal auxiliary supercell:     5 x     5 x     3  =      75
superc: Number of atoms, orbitals, and projectors:   1200  15600  19200

outcell: Unit cell vectors (Ang):
        5.012864   -0.000000    0.000000
       -2.506432    4.341267   -0.000000
        0.000000   -0.000000    6.331154

outcell: Cell vector modules (Ang)   :    5.012864    5.012864    6.331154
outcell: Cell angles (23,13,12) (deg):     90.0000     90.0000    120.0000
outcell: Cell volume (Ang**3)        :    137.7797
<dSpData1D:S at geom step 1
  <sparsity:sparsity for geom step 1
    nrows_g=208 nrows=40 sparsity=2.7103 nnzs=117257, refcount: 7>
  <dData1D:(new from dSpData1D) n=117257, refcount: 1>
refcount: 1>
new_DM -- step:     2
Re-using DM from previous geometries...
Number of DMs in history: 1
 DM extrapolation coefficients: 
1   1.00000
New DM after history re-use:
<dSpData2D:SpM extrapolated using coords
  <sparsity:sparsity for geom step 1
    nrows_g=208 nrows=40 sparsity=2.7103 nnzs=117257, refcount: 8>
  <dData2D:(temp array for extrapolation) n=117257 m=1, refcount: 1>
refcount: 1>
No. of atoms with KB's overlaping orbs in proc 0. Max # of overlaps:     112     592
New grid distribution:   1
           1       1:   20    1:   10    1:    7
           2       1:   20    1:   10    8:   14
           3       1:   20    1:   10   15:   21
           4       1:   20    1:   10   22:   27
           5       1:   20   11:   20    1:    7
           6       1:   20   11:   20    8:   14
           7       1:   20   11:   20   15:   21
           8       1:   20   11:   20   22:   27

InitMesh: MESH =    40 x    40 x    54 =       86400
InitMesh: (bp) =    20 x    20 x    27 =       10800
InitMesh: Mesh cutoff (required, used) =   200.000   201.059 Ry
ExtMesh (bp) on 0 =    96 x    86 x    75 =      619200
New grid distribution:   2
           1       1:   10   11:   20   14:   27
           2      11:   20    1:   10    1:   13
           3      11:   20    1:   10   14:   27
           4      11:   20   11:   20    1:   13
           5       1:   10    1:   10   14:   27
           6       1:   10    1:   10    1:   13
           7      11:   20   11:   20   14:   27
           8       1:   10   11:   20    1:   13
New grid distribution:   3
           1      11:   20   11:   20    1:   14
           2       1:   10    1:   10    1:   14
           3      11:   20   11:   20   15:   27
           4       1:   10    1:   10   15:   27
           5       1:   10   11:   20    1:   14
           6      11:   20    1:   10    1:   14
           7       1:   10   11:   20   15:   27
           8      11:   20    1:   10   15:   27
Setting up quadratic distribution...
ExtMesh (bp) on 0 =    86 x    86 x    82 =      606472
PhiOnMesh: Number of (b)points on node 0 =                 1400
PhiOnMesh: nlist on node 0 =               302254

        iscf     Eharris(eV)        E_KS(eV)     FreeEng(eV)     dDmax    Ef(eV) dHmax(eV)
   scf:    1    -3077.634153    -3077.733689    -3077.733690  0.007888 -6.857501  0.018795
   scf:    2    -3077.732741    -3077.733453    -3077.733454  0.000940 -6.849221  0.028158
   scf:    3    -3077.733873    -3077.733774    -3077.733775  0.000631 -6.854185  0.002304
   scf:    4    -3077.733778    -3077.733776    -3077.733777  0.000294 -6.853288  0.000266
   scf:    5    -3077.733776    -3077.733776    -3077.733777  0.000029 -6.853198  0.000042
   scf:    6    -3077.733776    -3077.733776    -3077.733777  0.000002 -6.853190  0.000025

SCF Convergence by DM+H criterion
max |DM_out - DM_in|         :     0.0000015635
max |H_out - H_in|      (eV) :     0.0000251374
SCF cycle converged after 6 iterations

Using DM_out to compute the final energy and forces
No. of atoms with KB's overlaping orbs in proc 0. Max # of overlaps:     112     592

siesta: E_KS(eV) =            -3077.7338

siesta: Atomic forces (eV/Ang):
----------------------------------------
   Tot   -0.000001    0.000001    0.008199
----------------------------------------
   Max    6.810795
   Res    3.931181    sqrt( Sum f_i^2 / 3N )
----------------------------------------
   Max    6.810795    constrained

Stress-tensor-Voigt (kbar):      -33.15      -28.21      625.97        4.28       -0.00        0.00
(Free)E + p*V (eV/cell)    -3093.9182
Target enthalpy (eV/cell)    -3073.4341

siesta: Stress tensor (static) (eV/Ang**3):
        -0.020691    0.002672    0.000001
         0.002672   -0.017608   -0.000001
         0.000001   -0.000001    0.390696

siesta: Pressure (static):       -188.20276368  kBar

siesta: Stress tensor (total) (eV/Ang**3):
        -0.020691    0.002672    0.000001
         0.002672   -0.017608   -0.000001
         0.000001   -0.000001    0.390696

siesta: Pressure (total):       -188.20276368  kBar

                     ====================================
                        Begin CG opt. move =      2
                     ====================================
 Kpoints in:          224 . Kpoints trimmed:          224

siesta: k-grid: Number of k-points =   224
siesta: k-grid: Cutoff (effective) =    20.051 Ang
siesta: k-grid: Supercell and displacements
siesta: k-grid:    8   8   0      0.500
siesta: k-grid:    8   0   0      0.500
siesta: k-grid:    0   0   7      0.000

superc: Internal auxiliary supercell:     5 x     5 x     3  =      75
superc: Number of atoms, orbitals, and projectors:   1200  15600  19200

outcell: Unit cell vectors (Ang):
        5.012718   -0.000040    0.000000
       -2.506393    4.341121   -0.000000
        0.000000   -0.000000    6.323135

outcell: Cell vector modules (Ang)   :    5.012718    5.012718    6.323135
outcell: Cell angles (23,13,12) (deg):     90.0000     90.0000    120.0009
outcell: Cell volume (Ang**3)        :    137.5960
<dSpData1D:S at geom step 2
  <sparsity:sparsity for geom step 2
    nrows_g=208 nrows=40 sparsity=2.7103 nnzs=117257, refcount: 7>
  <dData1D:(new from dSpData1D) n=117257, refcount: 1>
refcount: 1>
new_DM -- step:     3
Re-using DM from previous geometries...
Number of DMs in history: 1
 DM extrapolation coefficients: 
1   1.00000
New DM after history re-use:
<dSpData2D:SpM extrapolated using coords
  <sparsity:sparsity for geom step 2
    nrows_g=208 nrows=40 sparsity=2.7103 nnzs=117257, refcount: 8>
  <dData2D:(temp array for extrapolation) n=117257 m=1, refcount: 1>
refcount: 1>
No. of atoms with KB's overlaping orbs in proc 0. Max # of overlaps:     112     592
New grid distribution:   1
           1       1:   20    1:   10    1:    7
           2       1:   20    1:   10    8:   14
           3       1:   20    1:   10   15:   21
           4       1:   20    1:   10   22:   27
           5       1:   20   11:   20    1:    7
           6       1:   20   11:   20    8:   14
           7       1:   20   11:   20   15:   21
           8       1:   20   11:   20   22:   27

InitMesh: MESH =    40 x    40 x    54 =       86400
InitMesh: (bp) =    20 x    20 x    27 =       10800
InitMesh: Mesh cutoff (required, used) =   200.000   201.569 Ry
ExtMesh (bp) on 0 =    96 x    86 x    75 =      619200
New grid distribution:   2
           1      11:   20   11:   20    1:   14
           2       1:   10    1:   10    1:   14
           3      11:   20   11:   20   15:   27
           4       1:   10    1:   10   15:   27
           5       1:   10   11:   20    1:   14
           6      11:   20    1:   10    1:   14
           7       1:   10   11:   20   15:   27
           8      11:   20    1:   10   15:   27
New grid distribution:   3
           1      11:   20   11:   20    1:   14
           2       1:   10    1:   10    1:   14
           3      11:   20   11:   20   15:   27
           4       1:   10    1:   10   15:   27
           5       1:   10   11:   20    1:   14
           6      11:   20    1:   10    1:   14
           7       1:   10   11:   20   15:   27
           8      11:   20    1:   10   15:   27
Setting up quadratic distribution...
ExtMesh (bp) on 0 =    86 x    86 x    82 =      606472
PhiOnMesh: Number of (b)points on node 0 =                 1400
PhiOnMesh: nlist on node 0 =               302677

        iscf     Eharris(eV)        E_KS(eV)     FreeEng(eV)     dDmax    Ef(eV) dHmax(eV)
   scf:    1    -3078.039914    -3078.197701    -3078.197701  0.012687 -6.853710  0.029667
   scf:    2    -3078.195447    -3078.197144    -3078.197144  0.001450 -6.840676  0.043854
   scf:    3    -3078.198149    -3078.197911    -3078.197911  0.000972 -6.848434  0.003625
   scf:    4    -3078.197920    -3078.197916    -3078.197916  0.000464 -6.847029  0.000442
   scf:    5    -3078.197916    -3078.197916    -3078.197916  0.000047 -6.846876  0.000086
   scf:    6    -3078.197916    -3078.197916    -3078.197916  0.000005 -6.846861  0.000042

SCF Convergence by DM+H criterion
max |DM_out - DM_in|         :     0.0000049488
max |H_out - H_in|      (eV) :     0.0000424466
SCF cycle converged after 6 iterations

Using DM_out to compute the final energy and forces
No. of atoms with KB's overlaping orbs in proc 0. Max # of overlaps:     112     592

siesta: E_KS(eV) =            -3078.1979

siesta: Atomic forces (eV/Ang):
----------------------------------------
   Tot    0.002107   -0.000913   -0.080829
----------------------------------------
   Max    6.726892
   Res    3.880225    sqrt( Sum f_i^2 / 3N )
----------------------------------------
   Max    6.726892    constrained

Stress-tensor-Voigt (kbar):      -31.29      -26.41      608.00        4.23        0.00       -0.00
(Free)E + p*V (eV/cell)    -3093.9507
Target enthalpy (eV/cell)    -3073.9039

siesta: Stress tensor (static) (eV/Ang**3):
        -0.019532    0.002639   -0.000000
         0.002639   -0.016486    0.000000
        -0.000000    0.000000    0.379477

siesta: Pressure (static):       -183.42886644  kBar

siesta: Stress tensor (total) (eV/Ang**3):
        -0.019532    0.002639   -0.000000
         0.002639   -0.016486    0.000000
        -0.000000    0.000000    0.379477

siesta: Pressure (total):       -183.42886644  kBar

                     ====================================
                        Begin CG opt. move =      3
                     ====================================
 Kpoints in:          224 . Kpoints trimmed:          224

siesta: k-grid: Number of k-points =   224
siesta: k-grid: Cutoff (effective) =    20.049 Ang
siesta: k-grid: Supercell and displacements
siesta: k-grid:    8   8   0      0.500
siesta: k-grid:    8   0   0      0.500
siesta: k-grid:    0   0   7      0.000

superc: Internal auxiliary supercell:     5 x     5 x     3  =      75
superc: Number of atoms, orbitals, and projectors:   1200  15600  19200

outcell: Unit cell vectors (Ang):
        5.012488   -0.000103    0.000000
       -2.506333    4.340890   -0.000000
        0.000000   -0.000000    6.310463

outcell: Cell vector modules (Ang)   :    5.012488    5.012488    6.310463
outcell: Cell angles (23,13,12) (deg):     90.0000     90.0000    120.0023
outcell: Cell volume (Ang**3)        :    137.3056
<dSpData1D:S at geom step 3
  <sparsity:sparsity for geom step 3
    nrows_g=208 nrows=40 sparsity=2.7103 nnzs=117257, refcount: 7>
  <dData1D:(new from dSpData1D) n=117257, refcount: 1>
refcount: 1>
new_DM -- step:     4
Re-using DM from previous geometries...
Number of DMs in history: 1
 DM extrapolation coefficients: 
1   1.00000
New DM after history re-use:
<dSpData2D:SpM extrapolated using coords
  <sparsity:sparsity for geom step 3
    nrows_g=208 nrows=40 sparsity=2.7103 nnzs=117257, refcount: 8>
  <dData2D:(temp array for extrapolation) n=117257 m=1, refcount: 1>
refcount: 1>
Note: For starting DM, Qtot, Tr[D*S] =         64.00000000         64.09283888
No. of atoms with KB's overlaping orbs in proc 0. Max # of overlaps:     112     592
New grid distribution:   1
           1       1:   20    1:   10    1:    7
           2       1:   20    1:   10    8:   14
           3       1:   20    1:   10   15:   21
           4       1:   20    1:   10   22:   27
           5       1:   20   11:   20    1:    7
           6       1:   20   11:   20    8:   14
           7       1:   20   11:   20   15:   21
           8       1:   20   11:   20   22:   27

InitMesh: MESH =    40 x    40 x    54 =       86400
InitMesh: (bp) =    20 x    20 x    27 =       10800
InitMesh: Mesh cutoff (required, used) =   200.000   202.380 Ry
ExtMesh (bp) on 0 =    96 x    86 x    75 =      619200
New grid distribution:   2
           1       1:   10   11:   20   14:   27
           2      11:   20    1:   10    1:   13
           3      11:   20    1:   10   14:   27
           4      11:   20   11:   20    1:   13
           5       1:   10    1:   10   14:   27
           6       1:   10    1:   10    1:   13
           7      11:   20   11:   20   14:   27
           8       1:   10   11:   20    1:   13
New grid distribution:   3
           1      11:   20   11:   20    1:   14
           2       1:   10    1:   10    1:   14
           3      11:   20   11:   20   15:   27
           4       1:   10    1:   10   15:   27
           5       1:   10   11:   20    1:   14
           6      11:   20    1:   10    1:   14
           7       1:   10   11:   20   15:   27
           8      11:   20    1:   10   15:   27
Setting up quadratic distribution...
ExtMesh (bp) on 0 =    86 x    86 x    82 =      606472
PhiOnMesh: Number of (b)points on node 0 =                 1400
PhiOnMesh: nlist on node 0 =               303156

        iscf     Eharris(eV)        E_KS(eV)     FreeEng(eV)     dDmax    Ef(eV) dHmax(eV)
   scf:    1    -3078.669851    -3078.915020    -3078.915020  0.020021 -6.846092  0.045961
   scf:    2    -3078.909945    -3078.913783    -3078.913783  0.002166 -6.825488  0.066505
   scf:    3    -3078.916064    -3078.915518    -3078.915518  0.001448 -6.838205  0.005538
   scf:    4    -3078.915540    -3078.915531    -3078.915531  0.000716 -6.835329  0.000708
   scf:    5    -3078.915531    -3078.915531    -3078.915531  0.000082 -6.835184  0.000120
   scf:    6    -3078.915531    -3078.915531    -3078.915531  0.000005 -6.835166  0.000066

SCF Convergence by DM+H criterion
max |DM_out - DM_in|         :     0.0000048553
max |H_out - H_in|      (eV) :     0.0000655827
SCF cycle converged after 6 iterations

Using DM_out to compute the final energy and forces
No. of atoms with KB's overlaping orbs in proc 0. Max # of overlaps:     112     592

siesta: E_KS(eV) =            -3078.9155

siesta: Atomic forces (eV/Ang):
----------------------------------------
   Tot   -0.001386    0.000801   -0.114366
----------------------------------------
   Max    6.588390
   Res    3.798880    sqrt( Sum f_i^2 / 3N )
----------------------------------------
   Max    6.588390    constrained

Stress-tensor-Voigt (kbar):      -29.44      -24.64      582.40        4.16        0.00       -0.01
(Free)E + p*V (eV/cell)    -3094.0076
Target enthalpy (eV/cell)    -3074.6306

siesta: Stress tensor (static) (eV/Ang**3):
        -0.018374    0.002596   -0.000005
         0.002596   -0.015377    0.000003
        -0.000005    0.000003    0.363500

siesta: Pressure (static):       -176.10696335  kBar

siesta: Stress tensor (total) (eV/Ang**3):
        -0.018374    0.002596   -0.000005
         0.002596   -0.015377    0.000003
        -0.000005    0.000003    0.363500

siesta: Pressure (total):       -176.10696335  kBar

                     ====================================
                        Begin CG opt. move =      4
                     ====================================
 Kpoints in:          224 . Kpoints trimmed:          224

siesta: k-grid: Number of k-points =   224
siesta: k-grid: Cutoff (effective) =    20.048 Ang
siesta: k-grid: Supercell and displacements
siesta: k-grid:    8   8   0      0.500
siesta: k-grid:    8   0   0      0.500
siesta: k-grid:    0   0   7      0.000

superc: Internal auxiliary supercell:     5 x     5 x     3  =      75
superc: Number of atoms, orbitals, and projectors:   1200  15600  19200

outcell: Unit cell vectors (Ang):
        5.012258   -0.000165    0.000000
       -2.506272    4.340660   -0.000000
        0.000000   -0.000000    6.297791

outcell: Cell vector modules (Ang)   :    5.012258    5.012258    6.297791
outcell: Cell angles (23,13,12) (deg):     90.0000     90.0000    120.0038
outcell: Cell volume (Ang**3)        :    137.0153
<dSpData1D:S at geom step 4
  <sparsity:sparsity for geom step 4
    nrows_g=208 nrows=40 sparsity=2.7103 nnzs=117257, refcount: 7>
  <dData1D:(new from dSpData1D) n=117257, refcount: 1>
refcount: 1>
new_DM -- step:     5
Re-using DM from previous geometries...
Number of DMs in history: 1
 DM extrapolation coefficients: 
1   1.00000
New DM after history re-use:
<dSpData2D:SpM extrapolated using coords
  <sparsity:sparsity for geom step 4
    nrows_g=208 nrows=40 sparsity=2.7103 nnzs=117257, refcount: 8>
  <dData2D:(temp array for extrapolation) n=117257 m=1, refcount: 1>
refcount: 1>
Note: For starting DM, Qtot, Tr[D*S] =         64.00000000         64.09156284
No. of atoms with KB's overlaping orbs in proc 0. Max # of overlaps:     112     592
New grid distribution:   1
           1       1:   20    1:   10    1:    7
           2       1:   20    1:   10    8:   14
           3       1:   20    1:   10   15:   21
           4       1:   20    1:   10   22:   27
           5       1:   20   11:   20    1:    7
           6       1:   20   11:   20    8:   14
           7       1:   20   11:   20   15:   21
           8       1:   20   11:   20   22:   27

InitMesh: MESH =    40 x    40 x    54 =       86400
InitMesh: (bp) =    20 x    20 x    27 =       10800
InitMesh: Mesh cutoff (required, used) =   200.000   203.195 Ry
ExtMesh (bp) on 0 =    96 x    86 x    79 =      652224
New grid distribution:   2
           1       1:   10   11:   20   14:   27
           2      11:   20    1:   10    1:   13
           3      11:   20    1:   10   14:   27
           4      11:   20   11:   20    1:   13
           5       1:   10    1:   10   14:   27
           6       1:   10    1:   10    1:   13
           7      11:   20   11:   20   14:   27
           8       1:   10   11:   20    1:   13
New grid distribution:   3
           1      11:   20   11:   20    1:   14
           2       1:   10    1:   10    1:   14
           3      11:   20   11:   20   15:   27
           4       1:   10    1:   10   15:   27
           5       1:   10   11:   20    1:   14
           6      11:   20    1:   10    1:   14
           7       1:   10   11:   20   15:   27
           8      11:   20    1:   10   15:   27
Setting up quadratic distribution...
ExtMesh (bp) on 0 =    86 x    86 x    86 =      636056
PhiOnMesh: Number of (b)points on node 0 =                 1400
PhiOnMesh: nlist on node 0 =               303827

        iscf     Eharris(eV)        E_KS(eV)     FreeEng(eV)     dDmax    Ef(eV) dHmax(eV)
   scf:    1    -3079.373710    -3079.614733    -3079.614733  0.018705 -6.844105  0.045208
   scf:    2    -3079.610234    -3079.613656    -3079.613656  0.002025 -6.825605  0.063690
   scf:    3    -3079.615702    -3079.615207    -3079.615207  0.001354 -6.836748  0.005366
   scf:    4    -3079.615228    -3079.615219    -3079.615219  0.000700 -6.835301  0.000740
   scf:    5    -3079.615220    -3079.615219    -3079.615219  0.000087 -6.835148  0.000127
   scf:    6    -3079.615219    -3079.615219    -3079.615219  0.000008 -6.835125  0.000064

SCF Convergence by DM+H criterion
max |DM_out - DM_in|         :     0.0000076647
max |H_out - H_in|      (eV) :     0.0000642428
SCF cycle converged after 6 iterations

Using DM_out to compute the final energy and forces
No. of atoms with KB's overlaping orbs in proc 0. Max # of overlaps:     112     592

siesta: E_KS(eV) =            -3079.6152

siesta: Atomic forces (eV/Ang):
----------------------------------------
   Tot    0.000495   -0.000242   -0.122699
----------------------------------------
   Max    6.447984
   Res    3.717455    sqrt( Sum f_i^2 / 3N )
----------------------------------------
   Max    6.447984    constrained

Stress-tensor-Voigt (kbar):      -27.90      -23.19      558.88        4.08        0.00       -0.00
(Free)E + p*V (eV/cell)    -3094.0901
Target enthalpy (eV/cell)    -3075.3394

siesta: Stress tensor (static) (eV/Ang**3):
        -0.017417    0.002549   -0.000001
         0.002549   -0.014475    0.000002
        -0.000001    0.000002    0.348824

siesta: Pressure (static):       -169.26207638  kBar

siesta: Stress tensor (total) (eV/Ang**3):
        -0.017417    0.002549   -0.000001
         0.002549   -0.014475    0.000002
        -0.000001    0.000002    0.348824

siesta: Pressure (total):       -169.26207638  kBar

                     ====================================
                        Begin CG opt. move =      5
                     ====================================
 Kpoints in:          224 . Kpoints trimmed:          224

siesta: k-grid: Number of k-points =   224
siesta: k-grid: Cutoff (effective) =    20.047 Ang
siesta: k-grid: Supercell and displacements
siesta: k-grid:    8   8   0      0.500
siesta: k-grid:    8   0   0      0.500
siesta: k-grid:    0   0   7      0.000

superc: Internal auxiliary supercell:     5 x     5 x     3  =      75
superc: Number of atoms, orbitals, and projectors:   1200  15600  19200

outcell: Unit cell vectors (Ang):
        5.012028   -0.000228    0.000000
       -2.506212    4.340429   -0.000000
        0.000000   -0.000000    6.285118

outcell: Cell vector modules (Ang)   :    5.012028    5.012028    6.285118
outcell: Cell angles (23,13,12) (deg):     90.0000     90.0000    120.0052
outcell: Cell volume (Ang**3)        :    136.7251
<dSpData1D:S at geom step 5
  <sparsity:sparsity for geom step 5
    nrows_g=208 nrows=40 sparsity=2.7103 nnzs=117257, refcount: 7>
  <dData1D:(new from dSpData1D) n=117257, refcount: 1>
refcount: 1>
new_DM -- step:     6
Re-using DM from previous geometries...
Number of DMs in history: 1
 DM extrapolation coefficients: 
1   1.00000
New DM after history re-use:
<dSpData2D:SpM extrapolated using coords
  <sparsity:sparsity for geom step 5
    nrows_g=208 nrows=40 sparsity=2.7103 nnzs=117257, refcount: 8>
  <dData2D:(temp array for extrapolation) n=117257 m=1, refcount: 1>
refcount: 1>
Note: For starting DM, Qtot, Tr[D*S] =         64.00000000         64.08986213
No. of atoms with KB's overlaping orbs in proc 0. Max # of overlaps:     112     592
New grid distribution:   1
           1       1:   20    1:   10    1:    7
           2       1:   20    1:   10    8:   14
           3       1:   20    1:   10   15:   21
           4       1:   20    1:   10   22:   27
           5       1:   20   11:   20    1:    7
           6       1:   20   11:   20    8:   14
           7       1:   20   11:   20   15:   21
           8       1:   20   11:   20   22:   27

InitMesh: MESH =    40 x    40 x    54 =       86400
InitMesh: (bp) =    20 x    20 x    27 =       10800
InitMesh: Mesh cutoff (required, used) =   200.000   204.015 Ry
ExtMesh (bp) on 0 =    96 x    86 x    79 =      652224
New grid distribution:   2
           1       1:   10   11:   20   14:   27
           2      11:   20    1:   10    1:   13
           3      11:   20    1:   10   14:   27
           4      11:   20   11:   20    1:   13
           5       1:   10    1:   10   14:   27
           6       1:   10    1:   10    1:   13
           7      11:   20   11:   20   14:   27
           8       1:   10   11:   20    1:   13
New grid distribution:   3
           1      11:   20   11:   20    1:   14
           2       1:   10    1:   10    1:   14
           3      11:   20   11:   20   15:   27
           4       1:   10    1:   10   15:   27
           5       1:   10   11:   20    1:   14
           6      11:   20    1:   10    1:   14
           7       1:   10   11:   20   15:   27
           8      11:   20    1:   10   15:   27
Setting up quadratic distribution...
ExtMesh (bp) on 0 =    86 x    86 x    86 =      636056
PhiOnMesh: Number of (b)points on node 0 =                 1400
PhiOnMesh: nlist on node 0 =               304450

        iscf     Eharris(eV)        E_KS(eV)     FreeEng(eV)     dDmax    Ef(eV) dHmax(eV)
   scf:    1    -3080.057006    -3080.295646    -3080.295646  0.017085 -6.717469  0.044162
   scf:    2    -3080.291716    -3080.294725    -3080.294725  0.002188 -6.699109  0.060478
   scf:    3    -3080.296539    -3080.296095    -3080.296095  0.001267 -6.710001  0.005137
   scf:    4    -3080.296114    -3080.296106    -3080.296106  0.000682 -6.708577  0.000746
   scf:    5    -3080.296107    -3080.296106    -3080.296106  0.000096 -6.708408  0.000113
   scf:    6    -3080.296106    -3080.296106    -3080.296106  0.000005 -6.708389  0.000062

SCF Convergence by DM+H criterion
max |DM_out - DM_in|         :     0.0000052538
max |H_out - H_in|      (eV) :     0.0000622578
SCF cycle converged after 6 iterations

Using DM_out to compute the final energy and forces
No. of atoms with KB's overlaping orbs in proc 0. Max # of overlaps:     112     592

siesta: E_KS(eV) =            -3080.2961

siesta: Atomic forces (eV/Ang):
----------------------------------------
   Tot   -0.001106    0.000642   -0.176563
----------------------------------------
   Max    6.302514
   Res    3.631858    sqrt( Sum f_i^2 / 3N )
----------------------------------------
   Max    6.302514    constrained

Stress-tensor-Voigt (kbar):      -26.05      -21.47      532.97        3.97       -0.01        0.02
(Free)E + p*V (eV/cell)    -3094.1048
Target enthalpy (eV/cell)    -3076.0293

siesta: Stress tensor (static) (eV/Ang**3):
        -0.016260    0.002480    0.000015
         0.002480   -0.013398   -0.000009
         0.000015   -0.000009    0.332647

siesta: Pressure (static):       -161.81561938  kBar

siesta: Stress tensor (total) (eV/Ang**3):
        -0.016260    0.002480    0.000015
         0.002480   -0.013398   -0.000009
         0.000015   -0.000009    0.332647

siesta: Pressure (total):       -161.81561938  kBar

                     ====================================
                        Begin CG opt. move =      6
                     ====================================
 Kpoints in:          224 . Kpoints trimmed:          224

siesta: k-grid: Number of k-points =   224
siesta: k-grid: Cutoff (effective) =    20.045 Ang
siesta: k-grid: Supercell and displacements
siesta: k-grid:    8   8   0      0.500
siesta: k-grid:    8   0   0      0.500
siesta: k-grid:    0   0   7      0.000

superc: Internal auxiliary supercell:     5 x     5 x     3  =      75
superc: Number of atoms, orbitals, and projectors:   1200  15600  19200

outcell: Unit cell vectors (Ang):
        5.011797   -0.000291    0.000000
       -2.506151    4.340198   -0.000000
        0.000000   -0.000000    6.272446

outcell: Cell vector modules (Ang)   :    5.011797    5.011797    6.272446
outcell: Cell angles (23,13,12) (deg):     90.0000     90.0000    120.0067
outcell: Cell volume (Ang**3)        :    136.4349
<dSpData1D:S at geom step 6
  <sparsity:sparsity for geom step 6
    nrows_g=208 nrows=40 sparsity=2.7103 nnzs=117257, refcount: 7>
  <dData1D:(new from dSpData1D) n=117257, refcount: 1>
refcount: 1>
new_DM -- step:     7
Re-using DM from previous geometries...
Number of DMs in history: 1
 DM extrapolation coefficients: 
1   1.00000
New DM after history re-use:
<dSpData2D:SpM extrapolated using coords
  <sparsity:sparsity for geom step 6
    nrows_g=208 nrows=40 sparsity=2.7103 nnzs=117257, refcount: 8>
  <dData2D:(temp array for extrapolation) n=117257 m=1, refcount: 1>
refcount: 1>
Note: For starting DM, Qtot, Tr[D*S] =         64.00000000         64.08795315
No. of atoms with KB's overlaping orbs in proc 0. Max # of overlaps:     112     592
New grid distribution:   1
           1       1:   20    1:   10    1:    7
           2       1:   20    1:   10    8:   14
           3       1:   20    1:   10   15:   21
           4       1:   20    1:   10   22:   27
           5       1:   20   11:   20    1:    7
           6       1:   20   11:   20    8:   14
           7       1:   20   11:   20   15:   21
           8       1:   20   11:   20   22:   27

InitMesh: MESH =    40 x    40 x    54 =       86400
InitMesh: (bp) =    20 x    20 x    27 =       10800
InitMesh: Mesh cutoff (required, used) =   200.000   204.840 Ry
ExtMesh (bp) on 0 =    96 x    86 x    79 =      652224
New grid distribution:   2
           1       1:   10   11:   20   14:   27
           2      11:   20    1:   10    1:   13
           3      11:   20    1:   10   14:   27
           4      11:   20   11:   20    1:   13
           5       1:   10    1:   10   14:   27
           6       1:   10    1:   10    1:   13
           7      11:   20   11:   20   14:   27
           8       1:   10   11:   20    1:   13
New grid distribution:   3
           1      11:   20   11:   20    1:   14
           2       1:   10    1:   10    1:   14
           3      11:   20   11:   20   15:   27
           4       1:   10    1:   10   15:   27
           5       1:   10   11:   20    1:   14
           6      11:   20    1:   10    1:   14
           7       1:   10   11:   20   15:   27
           8      11:   20    1:   10   15:   27
Setting up quadratic distribution...
ExtMesh (bp) on 0 =    86 x    86 x    86 =      636056
PhiOnMesh: Number of (b)points on node 0 =                 1400
PhiOnMesh: nlist on node 0 =               305088

        iscf     Eharris(eV)        E_KS(eV)     FreeEng(eV)     dDmax    Ef(eV) dHmax(eV)
   scf:    1    -3080.718997    -3080.956911    -3080.956911  0.016694 -6.821025  0.042946
   scf:    2    -3080.953516    -3080.956136    -3080.956136  0.002323 -6.802950  0.057226
   scf:    3    -3080.957729    -3080.957335    -3080.957335  0.001181 -6.813515  0.004878
   scf:    4    -3080.957352    -3080.957345    -3080.957345  0.000658 -6.812140  0.000750
   scf:    5    -3080.957346    -3080.957345    -3080.957345  0.000100 -6.811964  0.000112
   scf:    6    -3080.957345    -3080.957345    -3080.957345  0.000006 -6.811944  0.000060

SCF Convergence by DM+H criterion
max |DM_out - DM_in|         :     0.0000062921
max |H_out - H_in|      (eV) :     0.0000604555
SCF cycle converged after 6 iterations

Using DM_out to compute the final energy and forces
No. of atoms with KB's overlaping orbs in proc 0. Max # of overlaps:     112     592

siesta: E_KS(eV) =            -3080.9573

siesta: Atomic forces (eV/Ang):
----------------------------------------
   Tot    0.007728   -0.004461   -0.178197
----------------------------------------
   Max    6.148318
   Res    3.542917    sqrt( Sum f_i^2 / 3N )
----------------------------------------
   Max    6.148318    constrained

Stress-tensor-Voigt (kbar):      -25.11      -20.84      507.28        3.70       -0.01        0.02
(Free)E + p*V (eV/cell)    -3094.0523
Target enthalpy (eV/cell)    -3076.6996

siesta: Stress tensor (static) (eV/Ang**3):
        -0.015674    0.002312    0.000014
         0.002312   -0.013005   -0.000008
         0.000014   -0.000008    0.316618

siesta: Pressure (static):       -153.77798789  kBar

siesta: Stress tensor (total) (eV/Ang**3):
        -0.015674    0.002312    0.000014
         0.002312   -0.013005   -0.000008
         0.000014   -0.000008    0.316618

siesta: Pressure (total):       -153.77798789  kBar

                     ====================================
                        Begin CG opt. move =      7
                     ====================================
 Kpoints in:          224 . Kpoints trimmed:          224

siesta: k-grid: Number of k-points =   224
siesta: k-grid: Cutoff (effective) =    20.044 Ang
siesta: k-grid: Supercell and displacements
siesta: k-grid:    8   8   0      0.500
siesta: k-grid:    8   0   0      0.500
siesta: k-grid:    0   0   7      0.000

superc: Internal auxiliary supercell:     5 x     5 x     3  =      75
superc: Number of atoms, orbitals, and projectors:   1200  15600  19200

outcell: Unit cell vectors (Ang):
        5.011567   -0.000354    0.000000
       -2.506090    4.339967   -0.000000
        0.000000   -0.000000    6.259774

outcell: Cell vector modules (Ang)   :    5.011567    5.011567    6.259774
outcell: Cell angles (23,13,12) (deg):     90.0000     90.0000    120.0081
outcell: Cell volume (Ang**3)        :    136.1448
<dSpData1D:S at geom step 7
  <sparsity:sparsity for geom step 7
    nrows_g=208 nrows=40 sparsity=2.7103 nnzs=117257, refcount: 7>
  <dData1D:(new from dSpData1D) n=117257, refcount: 1>
refcount: 1>
new_DM -- step:     8
Re-using DM from previous geometries...
Number of DMs in history: 1
 DM extrapolation coefficients: 
1   1.00000
New DM after history re-use:
<dSpData2D:SpM extrapolated using coords
  <sparsity:sparsity for geom step 7
    nrows_g=208 nrows=40 sparsity=2.7103 nnzs=117257, refcount: 8>
  <dData2D:(temp array for extrapolation) n=117257 m=1, refcount: 1>
refcount: 1>
Note: For starting DM, Qtot, Tr[D*S] =         64.00000000         64.08597591
No. of atoms with KB's overlaping orbs in proc 0. Max # of overlaps:     112     592
New grid distribution:   1
           1       1:   20    1:   10    1:    7
           2       1:   20    1:   10    8:   14
           3       1:   20    1:   10   15:   21
           4       1:   20    1:   10   22:   27
           5       1:   20   11:   20    1:    7
           6       1:   20   11:   20    8:   14
           7       1:   20   11:   20   15:   21
           8       1:   20   11:   20   22:   27

InitMesh: MESH =    40 x    40 x    54 =       86400
InitMesh: (bp) =    20 x    20 x    27 =       10800
InitMesh: Mesh cutoff (required, used) =   200.000   205.670 Ry
ExtMesh (bp) on 0 =    96 x    86 x    79 =      652224
New grid distribution:   2
           1       1:   10   11:   20   14:   27
           2      11:   20    1:   10    1:   13
           3      11:   20    1:   10   14:   27
           4      11:   20   11:   20    1:   13
           5       1:   10    1:   10   14:   27
           6       1:   10    1:   10    1:   13
           7      11:   20   11:   20   14:   27
           8       1:   10   11:   20    1:   13
New grid distribution:   3
           1      11:   20   11:   20    1:   14
           2       1:   10    1:   10    1:   14
           3      11:   20   11:   20   15:   27
           4       1:   10    1:   10   15:   27
           5       1:   10   11:   20    1:   14
           6      11:   20    1:   10    1:   14
           7       1:   10   11:   20   15:   27
           8      11:   20    1:   10   15:   27
Setting up quadratic distribution...
ExtMesh (bp) on 0 =    86 x    86 x    86 =      636056
PhiOnMesh: Number of (b)points on node 0 =                 1400
PhiOnMesh: nlist on node 0 =               305786

        iscf     Eharris(eV)        E_KS(eV)     FreeEng(eV)     dDmax    Ef(eV) dHmax(eV)
   scf:    1    -3081.360754    -3081.598400    -3081.598400  0.016644 -6.565150  0.041677
   scf:    2    -3081.595489    -3081.597757    -3081.597757  0.002446 -6.547446  0.054000
   scf:    3    -3081.599150    -3081.598801    -3081.598801  0.001091 -6.557635  0.004591
   scf:    4    -3081.598817    -3081.598810    -3081.598810  0.000630 -6.556323  0.000746
   scf:    5    -3081.598811    -3081.598810    -3081.598810  0.000104 -6.556138  0.000106
   scf:    6    -3081.598810    -3081.598810    -3081.598810  0.000006 -6.556120  0.000059

SCF Convergence by DM+H criterion
max |DM_out - DM_in|         :     0.0000057824
max |H_out - H_in|      (eV) :     0.0000586006
SCF cycle converged after 6 iterations

Using DM_out to compute the final energy and forces
No. of atoms with KB's overlaping orbs in proc 0. Max # of overlaps:     112     592

siesta: E_KS(eV) =            -3081.5988

siesta: Atomic forces (eV/Ang):
----------------------------------------
   Tot   -0.000369    0.000145   -0.239384
----------------------------------------
   Max    5.994967
   Res    3.452236    sqrt( Sum f_i^2 / 3N )
----------------------------------------
   Max    5.994967    constrained

Stress-tensor-Voigt (kbar):      -24.65      -20.51      481.58        3.59        0.00       -0.00
(Free)E + p*V (eV/cell)    -3093.9603
Target enthalpy (eV/cell)    -3077.3501

siesta: Stress tensor (static) (eV/Ang**3):
        -0.015385    0.002240   -0.000002
         0.002240   -0.012799    0.000002
        -0.000002    0.000002    0.300574

siesta: Pressure (static):       -145.47380990  kBar

siesta: Stress tensor (total) (eV/Ang**3):
        -0.015385    0.002240   -0.000002
         0.002240   -0.012799    0.000002
        -0.000002    0.000002    0.300574

siesta: Pressure (total):       -145.47380990  kBar

                     ====================================
                        Begin CG opt. move =      8
                     ====================================
 Kpoints in:          224 . Kpoints trimmed:          224

siesta: k-grid: Number of k-points =   224
siesta: k-grid: Cutoff (effective) =    20.042 Ang
siesta: k-grid: Supercell and displacements
siesta: k-grid:    8   8   0      0.500
siesta: k-grid:    8   0   0      0.500
siesta: k-grid:    0   0   7      0.000

superc: Internal auxiliary supercell:     5 x     5 x     3  =      75
superc: Number of atoms, orbitals, and projectors:   1200  15600  19200

outcell: Unit cell vectors (Ang):
        5.011337   -0.000417    0.000000
       -2.506030    4.339737   -0.000000
        0.000000   -0.000000    6.247101

outcell: Cell vector modules (Ang)   :    5.011337    5.011337    6.247101
outcell: Cell angles (23,13,12) (deg):     90.0000     90.0000    120.0095
outcell: Cell volume (Ang**3)        :    135.8547
<dSpData1D:S at geom step 8
  <sparsity:sparsity for geom step 8
    nrows_g=208 nrows=40 sparsity=2.7103 nnzs=117257, refcount: 7>
  <dData1D:(new from dSpData1D) n=117257, refcount: 1>
refcount: 1>
new_DM -- step:     9
Re-using DM from previous geometries...
Number of DMs in history: 1
 DM extrapolation coefficients: 
1   1.00000
New DM after history re-use:
<dSpData2D:SpM extrapolated using coords
  <sparsity:sparsity for geom step 8
    nrows_g=208 nrows=40 sparsity=2.7103 nnzs=117257, refcount: 8>
  <dData2D:(temp array for extrapolation) n=117257 m=1, refcount: 1>
refcount: 1>
Note: For starting DM, Qtot, Tr[D*S] =         64.00000000         64.08400160
No. of atoms with KB's overlaping orbs in proc 0. Max # of overlaps:     112     592
New grid distribution:   1
           1       1:   20    1:   10    1:    7
           2       1:   20    1:   10    8:   14
           3       1:   20    1:   10   15:   21
           4       1:   20    1:   10   22:   27
           5       1:   20   11:   20    1:    7
           6       1:   20   11:   20    8:   14
           7       1:   20   11:   20   15:   21
           8       1:   20   11:   20   22:   27

InitMesh: MESH =    40 x    40 x    54 =       86400
InitMesh: (bp) =    20 x    20 x    27 =       10800
InitMesh: Mesh cutoff (required, used) =   200.000   206.506 Ry
ExtMesh (bp) on 0 =    96 x    86 x    79 =      652224
New grid distribution:   2
           1       1:   10   11:   20   14:   27
           2      11:   20    1:   10    1:   13
           3      11:   20    1:   10   14:   27
           4      11:   20   11:   20    1:   13
           5       1:   10    1:   10   14:   27
           6       1:   10    1:   10    1:   13
           7      11:   20   11:   20   14:   27
           8       1:   10   11:   20    1:   13
New grid distribution:   3
           1      11:   20   11:   20    1:   14
           2       1:   10    1:   10    1:   14
           3      11:   20   11:   20   15:   27
           4       1:   10    1:   10   15:   27
           5       1:   10   11:   20    1:   14
           6      11:   20    1:   10    1:   14
           7       1:   10   11:   20   15:   27
           8      11:   20    1:   10   15:   27
Setting up quadratic distribution...
ExtMesh (bp) on 0 =    86 x    86 x    86 =      636056
PhiOnMesh: Number of (b)points on node 0 =                 1400
PhiOnMesh: nlist on node 0 =               306370

        iscf     Eharris(eV)        E_KS(eV)     FreeEng(eV)     dDmax    Ef(eV) dHmax(eV)
   scf:    1    -3081.982578    -3082.219683    -3082.219683  0.016656 -6.675133  0.040509
   scf:    2    -3082.217176    -3082.219151    -3082.219151  0.002556 -6.657746  0.051108
   scf:    3    -3082.220377    -3082.220065    -3082.220065  0.001010 -6.667597  0.004292
   scf:    4    -3082.220079    -3082.220073    -3082.220073  0.000600 -6.666354  0.000738
   scf:    5    -3082.220074    -3082.220074    -3082.220074  0.000107 -6.666163  0.000102
   scf:    6    -3082.220074    -3082.220074    -3082.220074  0.000006 -6.666144  0.000057

SCF Convergence by DM+H criterion
max |DM_out - DM_in|         :     0.0000058708
max |H_out - H_in|      (eV) :     0.0000567824
SCF cycle converged after 6 iterations

Using DM_out to compute the final energy and forces
No. of atoms with KB's overlaping orbs in proc 0. Max # of overlaps:     112     592

siesta: E_KS(eV) =            -3082.2201

siesta: Atomic forces (eV/Ang):
----------------------------------------
   Tot   -0.000230    0.000083   -0.288188
----------------------------------------
   Max    5.838536
   Res    3.359910    sqrt( Sum f_i^2 / 3N )
----------------------------------------
   Max    5.838536    constrained

Stress-tensor-Voigt (kbar):      -24.33      -19.88      454.94        3.86       -0.01        0.01
(Free)E + p*V (eV/cell)    -3093.8289
Target enthalpy (eV/cell)    -3077.9804

siesta: Stress tensor (static) (eV/Ang**3):
        -0.015188    0.002411    0.000007
         0.002411   -0.012407   -0.000004
         0.000007   -0.000004    0.283947

siesta: Pressure (static):       -136.90853682  kBar

siesta: Stress tensor (total) (eV/Ang**3):
        -0.015188    0.002411    0.000007
         0.002411   -0.012407   -0.000004
         0.000007   -0.000004    0.283947

siesta: Pressure (total):       -136.90853682  kBar

                     ====================================
                        Begin CG opt. move =      9
                     ====================================
 Kpoints in:          224 . Kpoints trimmed:          224

siesta: k-grid: Number of k-points =   224
siesta: k-grid: Cutoff (effective) =    20.041 Ang
siesta: k-grid: Supercell and displacements
siesta: k-grid:    8   8   0      0.500
siesta: k-grid:    8   0   0      0.500
siesta: k-grid:    0   0   7      0.000

superc: Internal auxiliary supercell:     5 x     5 x     3  =      75
superc: Number of atoms, orbitals, and projectors:   1200  15600  19200

outcell: Unit cell vectors (Ang):
        5.011107   -0.000480    0.000000
       -2.505969    4.339506   -0.000000
        0.000000   -0.000000    6.234429

outcell: Cell vector modules (Ang)   :    5.011107    5.011107    6.234429
outcell: Cell angles (23,13,12) (deg):     90.0000     90.0000    120.0110
outcell: Cell volume (Ang**3)        :    135.5647
<dSpData1D:S at geom step 9
  <sparsity:sparsity for geom step 9
    nrows_g=208 nrows=40 sparsity=2.7103 nnzs=117257, refcount: 7>
  <dData1D:(new from dSpData1D) n=117257, refcount: 1>
refcount: 1>
new_DM -- step:    10
Re-using DM from previous geometries...
Number of DMs in history: 1
 DM extrapolation coefficients: 
1   1.00000
New DM after history re-use:
<dSpData2D:SpM extrapolated using coords
  <sparsity:sparsity for geom step 9
    nrows_g=208 nrows=40 sparsity=2.7103 nnzs=117257, refcount: 8>
  <dData2D:(temp array for extrapolation) n=117257 m=1, refcount: 1>
refcount: 1>
Note: For starting DM, Qtot, Tr[D*S] =         64.00000000         64.08208877
No. of atoms with KB's overlaping orbs in proc 0. Max # of overlaps:     112     592
New grid distribution:   1
           1       1:   20    1:   10    1:    7
           2       1:   20    1:   10    8:   14
           3       1:   20    1:   10   15:   21
           4       1:   20    1:   10   22:   27
           5       1:   20   11:   20    1:    7
           6       1:   20   11:   20    8:   14
           7       1:   20   11:   20   15:   21
           8       1:   20   11:   20   22:   27

InitMesh: MESH =    40 x    40 x    54 =       86400
InitMesh: (bp) =    20 x    20 x    27 =       10800
InitMesh: Mesh cutoff (required, used) =   200.000   207.346 Ry
ExtMesh (bp) on 0 =    96 x    86 x    79 =      652224
New grid distribution:   2
           1       1:   10   11:   20   14:   27
           2      11:   20    1:   10    1:   13
           3      11:   20    1:   10   14:   27
           4      11:   20   11:   20    1:   13
           5       1:   10    1:   10   14:   27
           6       1:   10    1:   10    1:   13
           7      11:   20   11:   20   14:   27
           8       1:   10   11:   20    1:   13
New grid distribution:   3
           1      11:   20   11:   20    1:   14
           2       1:   10    1:   10    1:   14
           3      11:   20   11:   20   15:   27
           4       1:   10    1:   10   15:   27
           5       1:   10   11:   20    1:   14
           6      11:   20    1:   10    1:   14
           7       1:   10   11:   20   15:   27
           8      11:   20    1:   10   15:   27
Setting up quadratic distribution...
ExtMesh (bp) on 0 =    86 x    86 x    86 =      636056
PhiOnMesh: Number of (b)points on node 0 =                 1400
PhiOnMesh: nlist on node 0 =               307013

        iscf     Eharris(eV)        E_KS(eV)     FreeEng(eV)     dDmax    Ef(eV) dHmax(eV)
   scf:    1    -3082.584690    -3082.820657    -3082.820657  0.016496 -6.788101  0.039409
   scf:    2    -3082.818491    -3082.820218    -3082.820218  0.002657 -6.771001  0.048474
   scf:    3    -3082.821305    -3082.821024    -3082.821024  0.001012 -6.780534  0.003983
   scf:    4    -3082.821037    -3082.821032    -3082.821032  0.000568 -6.779364  0.000727
   scf:    5    -3082.821032    -3082.821032    -3082.821032  0.000109 -6.779167  0.000098
   scf:    6    -3082.821032    -3082.821032    -3082.821032  0.000006 -6.779147  0.000055

SCF Convergence by DM+H criterion
max |DM_out - DM_in|         :     0.0000061382
max |H_out - H_in|      (eV) :     0.0000549119
SCF cycle converged after 6 iterations

Using DM_out to compute the final energy and forces
No. of atoms with KB's overlaping orbs in proc 0. Max # of overlaps:     112     592

siesta: E_KS(eV) =            -3082.8210

siesta: Atomic forces (eV/Ang):
----------------------------------------
   Tot   -0.000543    0.000213   -0.272531
----------------------------------------
   Max    5.675641
   Res    3.266851    sqrt( Sum f_i^2 / 3N )
----------------------------------------
   Max    5.675641    constrained

Stress-tensor-Voigt (kbar):      -23.87      -19.65      429.57        3.66        0.00       -0.01
(Free)E + p*V (eV/cell)    -3093.7091
Target enthalpy (eV/cell)    -3078.5904

siesta: Stress tensor (static) (eV/Ang**3):
        -0.014900    0.002282   -0.000004
         0.002282   -0.012267    0.000002
        -0.000004    0.000002    0.268116

siesta: Pressure (static):       -128.68218011  kBar

siesta: Stress tensor (total) (eV/Ang**3):
        -0.014900    0.002282   -0.000004
         0.002282   -0.012267    0.000002
        -0.000004    0.000002    0.268116

siesta: Pressure (total):       -128.68218011  kBar

                     ====================================
                        Begin CG opt. move =     10
                     ====================================
 Kpoints in:          224 . Kpoints trimmed:          224

siesta: k-grid: Number of k-points =   224
siesta: k-grid: Cutoff (effective) =    20.040 Ang
siesta: k-grid: Supercell and displacements
siesta: k-grid:    8   8   0      0.500
siesta: k-grid:    8   0   0      0.500
siesta: k-grid:    0   0   7      0.000

superc: Internal auxiliary supercell:     5 x     5 x     3  =      75
superc: Number of atoms, orbitals, and projectors:   1200  15600  19200

outcell: Unit cell vectors (Ang):
        5.010877   -0.000543    0.000000
       -2.505908    4.339275   -0.000000
        0.000000   -0.000000    6.221757

outcell: Cell vector modules (Ang)   :    5.010877    5.010877    6.221757
outcell: Cell angles (23,13,12) (deg):     90.0000     90.0000    120.0124
outcell: Cell volume (Ang**3)        :    135.2748
<dSpData1D:S at geom step 10
  <sparsity:sparsity for geom step 10
    nrows_g=208 nrows=40 sparsity=2.7110 nnzs=117287, refcount: 7>
  <dData1D:(new from dSpData1D) n=117287, refcount: 1>
refcount: 1>
new_DM -- step:    11
Re-using DM from previous geometries...
Number of DMs in history: 1
 DM extrapolation coefficients: 
1   1.00000
New DM after history re-use:
<dSpData2D:SpM extrapolated using coords
  <sparsity:sparsity for geom step 10
    nrows_g=208 nrows=40 sparsity=2.7110 nnzs=117287, refcount: 8>
  <dData2D:(temp array for extrapolation) n=117287 m=1, refcount: 1>
refcount: 1>
Note: For starting DM, Qtot, Tr[D*S] =         64.00000000         64.08024316
No. of atoms with KB's overlaping orbs in proc 0. Max # of overlaps:     112     592
New grid distribution:   1
           1       1:   20    1:   10    1:    7
           2       1:   20    1:   10    8:   14
           3       1:   20    1:   10   15:   21
           4       1:   20    1:   10   22:   27
           5       1:   20   11:   20    1:    7
           6       1:   20   11:   20    8:   14
           7       1:   20   11:   20   15:   21
           8       1:   20   11:   20   22:   27

InitMesh: MESH =    40 x    40 x    54 =       86400
InitMesh: (bp) =    20 x    20 x    27 =       10800
InitMesh: Mesh cutoff (required, used) =   200.000   208.192 Ry
ExtMesh (bp) on 0 =    96 x    86 x    79 =      652224
New grid distribution:   2
           1       1:   10   11:   20   14:   27
           2      11:   20    1:   10    1:   13
           3      11:   20    1:   10   14:   27
           4      11:   20   11:   20    1:   13
           5       1:   10    1:   10   14:   27
           6       1:   10    1:   10    1:   13
           7      11:   20   11:   20   14:   27
           8       1:   10   11:   20    1:   13
New grid distribution:   3
           1      11:   20   11:   20    1:   14
           2       1:   10    1:   10    1:   14
           3      11:   20   11:   20   15:   27
           4       1:   10    1:   10   15:   27
           5       1:   10   11:   20    1:   14
           6      11:   20    1:   10    1:   14
           7       1:   10   11:   20   15:   27
           8      11:   20    1:   10   15:   27
Setting up quadratic distribution...
ExtMesh (bp) on 0 =    86 x    86 x    86 =      636056
PhiOnMesh: Number of (b)points on node 0 =                 1400
PhiOnMesh: nlist on node 0 =               307681

        iscf     Eharris(eV)        E_KS(eV)     FreeEng(eV)     dDmax    Ef(eV) dHmax(eV)
   scf:    1    -3083.167421    -3083.401399    -3083.401399  0.016726 -6.904272  0.038437
   scf:    2    -3083.399526    -3083.401041    -3083.401041  0.002763 -6.887383  0.046053
   scf:    3    -3083.402011    -3083.401756    -3083.401756  0.001051 -6.896634  0.003670
[...]
         38.26  38.44  38.94  39.30  39.78  40.86  42.69  43.38  44.58  44.84
         45.19  46.35  46.79  46.83  47.26  48.18  48.23  49.23  50.80  52.15
         52.84  53.05  53.78  54.00  54.66  55.48  55.84  56.03  56.51  57.43
         57.99  59.58  59.74  61.56  62.38  62.91  64.33  64.60  65.34  66.88
         67.27  67.49  69.17  69.30  69.40  70.03  70.37  70.80  70.92  71.73
         72.60  72.63  73.20  74.07  76.25  76.83  78.57  78.69  79.38  80.12
         80.30  82.87  83.19  84.84  90.76  92.72  93.10  97.19  97.70  99.20
        100.58 101.37 103.93 106.32 108.39 109.76 110.93 112.25 113.47 118.95
        120.69 121.72 122.39 124.63 125.94 126.70 128.64 129.33
 215  1 -25.23 -25.12 -23.88 -23.80 -23.01 -22.95 -22.55 -22.51 -16.35 -16.33
        -15.91 -15.88 -14.92 -14.89 -13.84 -13.81 -13.23 -13.20 -12.91 -12.30
        -11.81 -11.78 -11.57 -11.52 -11.00 -10.51 -10.49 -10.46  -9.76  -9.31
         -9.04  -8.69  -3.13  -2.84  -2.42  -2.12  -1.02  -0.73   0.55   1.32
          2.05   2.26   3.14   3.18   3.60   3.85   4.04   4.22   4.35   4.64
          4.74   5.32   5.42   5.61   5.65   5.71   5.90   5.91   8.52   8.53
          9.27   9.29   9.30   9.35  10.08  10.30  11.10  11.54  11.94  12.02
         12.08  12.13  13.65  13.73  14.05  14.09  14.60  14.81  16.73  17.10
         17.24  17.68  18.37  18.99  19.16  19.35  20.33  20.53  20.95  21.14
         21.51  21.75  22.08  22.18  22.95  23.28  26.88  27.02  28.00  28.06
         28.09  28.69  29.44  29.66  29.80  30.15  30.82  30.98  32.00  32.01
         32.04  32.72  33.66  33.66  35.10  35.27  35.70  36.70  36.75  37.79
         39.22  39.50  40.01  40.16  40.33  41.48  43.51  43.86  44.85  45.64
         46.49  46.80  47.64  47.84  48.01  48.14  49.39  50.13  50.48  50.73
         51.38  51.72  52.24  52.61  53.57  54.85  55.56  55.79  56.04  56.96
         58.35  59.62  59.92  60.04  60.78  62.54  62.67  63.35  63.42  63.54
         66.33  66.78  68.29  68.69  69.90  70.44  70.49  70.56  70.93  72.07
         72.34  73.04  73.45  75.04  76.02  76.75  77.81  78.86  79.48  80.15
         80.41  82.86  82.99  84.80  91.74  93.29  93.40  98.42  99.57 101.14
        102.67 103.82 104.50 106.31 106.56 108.20 109.65 109.92 111.99 117.45
        118.18 119.95 120.49 122.93 123.42 125.46 126.30 128.18
 216  1 -24.91 -24.80 -24.09 -24.00 -23.60 -23.52 -22.22 -22.20 -16.30 -16.27
        -14.92 -14.90 -14.69 -14.67 -14.29 -14.26 -12.82 -12.79 -12.63 -12.45
        -12.21 -11.98 -11.95 -11.75 -11.29 -11.10 -11.08 -10.73 -10.61 -10.09
         -8.49  -8.26  -3.43  -3.25  -1.28  -1.03  -0.46  -0.21   0.63   1.13
          2.53   2.94   2.97   3.32   3.36   3.89   3.97   4.36   4.36   4.57
          4.85   5.09   5.21   5.34   5.59   5.82   6.65   6.79   8.11   8.44
          8.56   8.66   8.84   9.28   9.92  10.10  11.43  11.56  11.78  11.88
         11.97  12.46  13.24  13.40  13.47  13.50  14.22  14.56  16.09  16.50
         16.96  17.48  18.15  18.63  18.95  19.37  20.03  20.25  20.69  21.00
         21.65  22.03  22.44  22.97  23.22  23.73  25.54  27.80  28.29  28.80
         28.87  29.03  29.14  29.83  30.61  30.66  31.00  31.25  31.49  32.44
         32.58  32.62  34.27  34.90  35.59  35.79  36.34  36.52  36.80  37.87
         39.98  40.21  40.96  41.80  43.02  43.35  43.49  44.57  45.05  46.24
         46.43  46.73  47.90  48.14  48.48  49.05  49.30  50.17  50.25  50.50
         50.54  51.11  52.13  52.90  53.50  54.13  55.07  56.02  56.51  56.67
         56.93  58.29  58.78  59.70  60.39  62.02  62.73  63.48  64.44  64.87
         65.03  65.64  67.23  67.64  68.69  69.88  69.89  69.94  70.61  71.27
         72.14  72.70  73.84  74.47  76.35  76.88  78.13  78.96  79.53  79.68
         80.06  81.30  81.72  83.20  93.82  94.89  95.29  98.38  98.46 100.88
        100.99 102.17 102.19 104.88 105.26 106.14 106.78 108.50 108.78 110.36
        113.23 114.19 116.65 117.20 118.66 118.73 130.40 131.32
 217  1 -24.66 -24.56 -24.39 -24.29 -23.63 -23.55 -22.20 -22.18 -16.16 -16.12
        -14.91 -14.90 -14.75 -14.73 -13.66 -13.64 -13.06 -13.02 -12.97 -12.95
        -12.06 -11.78 -11.71 -11.62 -11.52 -11.39 -11.35 -11.11 -10.65 -10.13
         -8.45  -8.23  -3.41  -3.25  -1.17  -0.93   0.08   0.34   0.47   0.80
          2.56   2.69   3.05   3.18   3.48   4.13   4.21   4.31   4.35   4.60
          4.80   4.92   5.07   5.23   5.87   6.09   7.28   7.37   7.74   7.99
          8.00   8.01   8.97   9.19  10.42  10.69  10.89  11.23  11.25  11.50
         11.86  12.33  13.28  13.41  13.48  13.54  14.96  15.41  15.90  15.98
         16.39  16.42  18.27  18.70  19.55  19.94  19.99  20.14  20.22  20.49
         21.55  21.95  22.77  23.07  23.34  23.63  25.11  28.28  28.57  28.63
         28.98  29.03  29.36  30.24  30.40  30.48  31.52  31.62  31.76  32.32
         32.44  32.44  34.78  35.22  35.24  36.04  36.09  36.38  36.81  37.70
         40.46  41.09  41.24  42.37  42.74  43.89  44.08  44.45  45.48  45.90
         46.53  47.11  47.11  47.98  48.63  48.70  48.78  49.38  50.85  50.97
         51.04  51.76  52.24  52.40  52.74  53.54  55.71  56.28  56.59  57.66
         58.02  58.43  59.56  60.22  60.32  60.72  61.81  62.17  62.49  62.57
         65.24  65.55  67.34  67.75  68.94  69.56  69.63  70.06  70.42  70.98
         73.39  73.71  74.17  75.34  76.13  76.36  77.57  79.07  79.22  79.49
         79.85  80.07  81.74  82.46  93.93  94.43  95.96  97.03  99.03 100.72
        101.88 103.13 104.00 104.28 104.63 104.63 106.34 106.99 109.38 109.92
        112.27 113.42 113.50 116.13 116.45 117.97 130.26 131.36
 218  1 -24.69 -24.59 -24.16 -24.07 -23.90 -23.82 -22.12 -22.11 -16.20 -16.15
        -15.04 -15.02 -14.38 -14.37 -14.02 -14.00 -12.91 -12.87 -12.55 -12.53
        -12.12 -12.10 -12.10 -11.58 -11.45 -11.40 -11.38 -11.03 -10.81 -10.48
         -8.29  -8.14  -3.51  -3.39  -0.70  -0.47  -0.27  -0.04   0.53   0.87
          2.81   2.87   3.13   3.43   3.62   3.88   4.05   4.10   4.28   4.58
          4.78   4.85   4.96   5.03   5.94   6.10   6.95   7.12   7.90   8.00
          8.03   8.04   9.32   9.57  10.45  10.72  11.21  11.30  11.48  11.89
         11.94  12.52  13.13  13.26  13.39  13.52  14.00  14.36  15.81  15.86
         16.19  16.35  18.74  19.12  19.17  19.53  20.03  20.24  20.29  20.53
         22.11  22.54  22.58  23.09  23.18  23.76  24.72  28.24  28.61  28.99
         29.01  29.48  29.62  29.95  30.12  30.62  31.03  31.66  31.82  32.23
         32.63  32.79  35.06  35.07  35.81  36.34  36.42  36.80  36.97  37.75
         40.50  40.75  41.48  42.06  42.80  44.04  44.55  44.69  45.20  45.92
         45.99  46.20  47.23  47.61  48.86  49.14  49.69  50.09  50.60  51.04
         51.26  51.91  52.34  52.51  52.90  53.53  55.86  56.08  57.28  57.78
         58.56  58.60  58.92  59.27  60.28  61.22  62.90  63.58  64.72  65.07
         65.25  65.42  65.51  66.09  67.20  67.45  68.43  68.62  70.80  71.99
         72.23  74.03  74.07  74.82  75.64  77.15  77.83  78.39  79.35  79.54
         80.15  80.81  81.02  82.49  95.42  95.98  96.29  98.02  98.46  99.49
         99.53 100.79 100.94 101.87 103.13 104.00 105.80 106.96 109.15 110.05
        111.66 111.97 113.44 116.33 116.40 116.97 131.49 131.92
 219  1 -24.59 -24.59 -24.49 -24.49 -23.34 -23.27 -22.35 -22.32 -16.08 -16.06
        -15.11 -15.11 -14.67 -14.66 -13.35 -13.33 -13.31 -13.31 -13.28 -13.27
        -11.98 -11.97 -11.42 -11.42 -11.34 -11.33 -11.29 -11.29 -10.25  -9.75
         -8.72  -8.42  -3.21  -3.01  -1.65  -1.41   0.34   0.34   0.65   0.65
          2.43   2.44   2.78   2.79   3.82   4.18   4.19   4.41   4.60   4.78
          4.88   4.89   5.28   5.49   5.77   6.01   7.61   7.83   7.85   7.86
          7.87   8.04   8.49   8.76  10.33  10.36  10.62  10.65  11.23  11.62
         11.66  11.82  13.52  13.71  13.86  13.99  16.03  16.03  16.23  16.47
         16.47  16.70  17.79  18.28  19.86  19.86  19.96  20.21  20.39  20.39
         20.97  21.33  22.83  22.84  23.30  23.31  25.89  27.96  27.96  28.65
         28.65  29.37  29.69  30.29  30.55  30.56  31.27  31.37  31.60  32.26
         32.43  32.44  34.23  34.29  35.43  35.66  35.71  35.87  36.45  37.59
         40.57  41.02  41.90  41.92  43.11  43.40  43.48  43.51  46.19  46.57
         46.63  47.29  47.91  47.98  48.16  48.35  48.64  48.71  50.23  50.31
         51.46  51.80  52.18  53.15  53.32  53.33  54.27  56.32  57.09  57.47
         57.50  57.60  58.30  58.38  60.99  61.00  61.07  61.09  62.68  62.69
         65.52  65.89  68.05  68.42  69.44  69.71  71.00  71.03  72.32  72.60
         72.65  73.27  74.86  74.88  76.42  77.29  77.33  78.92  78.94  78.98
         79.33  80.11  82.31  82.36  93.22  93.28  95.91  95.95  99.08 103.14
        103.28 103.40 105.67 106.86 107.38 107.41 108.77 108.82 109.26 109.66
        113.39 113.46 116.11 116.57 116.61 119.55 128.28 129.89
 220  1 -24.90 -24.80 -24.36 -24.26 -22.79 -22.79 -22.73 -22.73 -15.83 -15.82
        -15.81 -15.81 -13.95 -13.95 -13.94 -13.93 -13.92 -13.91 -12.72 -12.60
        -12.28 -11.76 -11.66 -11.41 -11.39 -11.08 -10.89 -10.86  -9.43  -9.42
         -9.01  -9.01  -2.60  -2.60  -2.35  -2.34  -0.08   0.19   0.56   1.05
          2.08   2.35   2.60   2.73   4.04   4.33   4.35   4.37   4.69   4.71
          4.82   5.22   5.44   5.45   5.74   5.74   7.13   7.18   7.89   7.90
          8.46   8.48   9.07   9.12   9.69   9.85  10.32  10.71  11.40  11.40
         11.65  11.65  13.89  13.90  14.33  14.34  15.84  16.10  16.93  16.93
         17.44  17.45  17.68  18.05  19.13  20.08  20.23  20.23  20.44  20.53
         20.53  21.35  22.25  22.53  22.84  23.04  27.37  27.41  28.38  28.39
         28.39  28.41  30.16  30.18  30.76  30.90  30.92  31.12  31.53  31.54
         32.54  32.68  32.95  33.87  34.32  35.39  35.41  35.66  37.12  37.14
         40.95  41.02  41.03  41.44  41.45  42.83  43.18  44.73  44.74  46.91
         47.05  47.46  47.49  47.53  47.95  47.96  49.22  49.45  51.01  51.02
         51.17  51.98  51.98  52.50  53.63  54.33  54.38  54.52  55.01  55.03
         58.50  59.26  59.27  59.40  59.67  59.68  60.47  62.05  62.17  64.13
         66.62  66.65  67.23  67.23  70.33  70.34  71.50  71.52  71.68  72.91
         73.93  74.36  74.76  75.07  75.85  76.60  77.94  77.95  78.59  79.89
         79.91  80.82  82.31  83.79  92.11  93.12  94.42  96.70 100.73 100.79
        106.35 106.40 106.61 106.68 107.78 108.76 108.78 109.35 112.24 114.49
        115.26 117.07 117.14 119.43 122.71 122.71 124.89 124.90
 221  1 -25.08 -24.98 -24.00 -23.91 -23.30 -23.23 -22.38 -22.34 -16.37 -16.33
        -15.43 -15.40 -14.60 -14.57 -14.27 -14.24 -13.07 -13.04 -12.73 -12.22
        -11.92 -11.86 -11.83 -11.79 -11.17 -10.78 -10.75 -10.62 -10.18  -9.69
         -8.75  -8.46  -3.31  -3.07  -1.86  -1.58  -0.72  -0.45   0.62   1.26
          2.26   2.54   3.09   3.19   3.45   3.83   3.93   4.47   4.61   4.64
          4.76   5.25   5.27   5.44   5.58   5.62   6.29   6.37   8.35   8.57
          8.90   9.21   9.33   9.49   9.56   9.65  11.25  11.69  11.74  11.96
         12.00  12.16  13.43  13.59  13.78  13.86  14.45  14.74  16.41  16.83
         17.63  18.08  18.12  18.53  18.68  19.21  20.10  20.32  21.09  21.24
         21.52  21.56  22.16  22.57  23.13  23.56  26.69  27.16  27.57  28.31
         28.54  28.73  29.61  29.94  30.50  30.66  30.72  31.00  31.31  32.42
         32.60  32.99  33.22  34.67  34.86  35.46  36.08  36.46  36.66  37.95
         39.59  39.76  40.57  41.40  41.57  41.77  43.71  44.73  44.78  45.81
         46.92  47.07  47.09  48.21  48.28  48.71  49.70  50.02  50.09  50.95
         51.60  51.84  51.87  52.91  52.95  53.76  54.82  55.39  56.13  57.46
         57.73  58.07  58.64  60.29  60.40  62.42  62.85  63.20  63.76  63.98
         65.43  66.06  68.53  68.69  69.58  69.74  69.77  70.95  71.24  71.61
         72.28  72.84  72.87  75.09  76.40  77.19  77.55  79.32  79.50  79.76
         80.25  82.08  82.42  83.96  92.44  94.08  94.13  98.42  98.75 101.60
        102.84 103.51 103.99 104.13 107.23 108.02 108.44 109.06 110.21 113.22
        115.60 117.05 118.48 120.06 120.81 121.98 128.63 130.04
 222  1 -25.12 -25.01 -23.79 -23.70 -23.55 -23.47 -22.28 -22.26 -16.49 -16.46
        -15.18 -15.15 -14.90 -14.87 -14.33 -14.30 -12.77 -12.62 -12.59 -12.21
        -12.21 -12.18 -11.78 -11.70 -10.87 -10.79 -10.77 -10.54 -10.33 -10.02
         -8.58  -8.34  -3.48  -3.24  -1.47  -1.19  -1.09  -0.81   0.63   1.31
          2.56   2.87   2.97   3.31   3.32   3.52   3.79   4.18   4.58   4.84
          4.84   5.06   5.22   5.52   5.55   5.57   6.05   6.22   8.74   8.76
          9.09   9.16   9.36   9.43   9.55   9.63  11.86  11.97  12.14  12.15
         12.36  12.62  13.23  13.43  13.47  13.48  13.69  13.95  16.29  16.68
         17.99  18.08  18.37  18.45  18.56  18.79  20.11  20.31  21.23  21.52
         21.75  22.06  22.11  22.50  23.27  23.69  26.34  27.36  27.77  27.93
         28.50  28.75  28.96  29.66  30.70  30.76  30.77  31.01  31.27  32.53
         32.57  32.96  33.99  34.59  35.29  35.93  36.15  36.23  37.00  38.12
         39.26  39.35  40.67  41.02  41.50  41.80  43.58  44.42  45.43  45.61
         46.31  46.55  47.48  48.06  48.26  48.89  50.09  50.38  50.75  51.04
         51.12  52.02  52.48  52.59  52.99  54.72  55.06  55.58  56.86  57.26
         57.61  57.70  58.43  58.96  59.35  61.28  64.85  65.09  65.47  65.83
         66.64  67.22  67.44  67.79  68.97  69.45  70.40  70.46  70.61  70.88
         71.83  71.89  73.01  73.26  76.92  77.96  78.28  79.14  79.72  80.02
         80.21  81.11  82.84  83.39  93.22  94.09  95.28  96.96  99.41  99.97
        100.35 101.92 103.37 105.48 105.88 106.90 108.33 109.01 110.32 110.55
        115.44 115.67 119.17 119.87 120.82 122.44 130.42 131.07
 223  1 -25.01 -24.91 -24.19 -24.10 -23.04 -22.98 -22.56 -22.51 -16.14 -16.11
        -15.64 -15.62 -14.28 -14.24 -14.14 -14.11 -13.52 -13.49 -12.68 -12.34
        -12.14 -11.84 -11.59 -11.56 -11.43 -10.87 -10.79 -10.77  -9.80  -9.35
         -9.05  -8.69  -3.00  -2.75  -2.24  -1.97  -0.38  -0.11   0.59   1.18
          2.09   2.36   2.83   2.91   3.93   4.00   4.35   4.47   4.56   4.70
          4.71   5.34   5.34   5.39   5.62   5.71   6.69   6.71   8.01   8.24
          8.64   8.84   9.39   9.46   9.59   9.70  10.63  11.06  11.50  11.68
         11.76  11.81  13.70  13.83  14.13  14.21  15.25  15.51  16.63  17.09
         17.29  17.79  18.00  18.40  18.89  19.69  20.11  20.37  20.67  20.81
         20.96  21.55  22.16  22.48  22.95  23.26  27.23  27.38  27.39  28.33
         28.38  29.52  29.67  30.26  30.32  30.74  30.80  30.99  31.29  32.14
         32.59  32.68  33.04  34.27  34.52  35.03  35.79  36.11  36.82  37.62
         40.23  40.35  40.81  41.24  41.65  42.24  43.57  44.51  44.94  46.55
         46.65  47.38  47.80  48.09  48.10  48.22  48.50  50.38  50.38  50.52
         51.32  51.77  51.94  52.94  53.07  53.76  54.56  55.16  55.39  56.27
         58.44  58.84  59.60  60.14  60.95  61.00  61.25  61.36  61.71  63.91
         66.01  66.52  67.63  68.19  69.71  70.63  70.82  71.06  72.09  72.24
         72.77  73.43  73.90  75.68  76.15  76.58  77.34  78.71  79.42  79.58
         80.15  81.78  82.46  84.15  92.08  93.43  94.12  97.39  99.95 102.43
        104.21 105.08 105.68 106.98 107.17 107.42 108.38 109.75 111.27 115.22
        115.64 117.73 118.76 119.62 120.95 122.44 125.91 127.82
 224  1 -24.76 -24.66 -24.49 -24.39 -23.06 -22.99 -22.55 -22.51 -15.97 -15.95
        -15.48 -15.47 -14.35 -14.33 -13.68 -13.66 -13.62 -13.59 -12.97 -12.92
        -12.18 -11.84 -11.60 -11.34 -11.32 -11.24 -11.07 -11.05  -9.83  -9.37
         -9.05  -8.69  -2.93  -2.70  -2.14  -1.89   0.16   0.44   0.49   0.88
          2.20   2.46   2.49   2.68   4.09   4.11   4.24   4.62   4.66   4.70
          4.87   5.08   5.46   5.62   5.66   5.86   7.56   7.59   7.64   8.08
          8.17   8.46   8.50   8.50   9.92  10.14  10.30  10.63  11.27  11.49
         11.58  11.64  13.77  13.90  14.20  14.29  16.07  16.41  16.56  17.00
         17.07  17.33  17.40  17.85  19.48  20.00  20.12  20.28  20.29  20.51
         20.84  20.89  22.55  22.82  22.84  23.12  27.03  27.56  27.64  28.47
         28.48  29.57  29.96  30.22  30.68  30.82  30.91  31.03  31.32  32.19
         32.58  32.64  33.19  33.89  34.87  35.17  35.54  35.94  36.53  37.40
         40.78  41.18  41.47  42.02  42.35  42.60  43.21  44.20  45.55  46.66
         46.75  47.63  47.73  47.74  47.93  48.08  48.91  49.69  49.87  51.19
         51.46  51.96  52.06  52.96  53.08  53.94  54.18  55.22  55.24  56.11
         57.75  58.12  58.51  58.61  60.11  60.39  61.00  61.84  62.60  63.63
         65.93  66.46  67.32  68.08  69.63  70.67  71.21  71.82  72.36  72.70
         73.90  73.99  74.60  75.22  76.57  77.10  77.46  77.86  78.56  79.56
         79.66  80.14  82.18  83.09  92.50  93.03  95.08  96.19  99.61 101.75
        104.97 105.48 106.80 107.34 108.17 108.64 109.35 109.97 111.25 112.62
        113.50 115.11 116.80 117.83 119.31 121.94 125.70 127.61
siesta: Fermi energy =      -5.786206 eV

siesta: Program's energy decomposition (eV):
siesta: Ebs     =      -975.816864
siesta: Eions   =      4351.079080
siesta: Ena     =       790.965826
siesta: Ekin    =      1986.345529
siesta: Enl     =      -329.383489
siesta: Eso     =         0.000000
siesta: Eldau   =         0.000000
siesta: DEna    =       -83.038221
siesta: DUscf   =         9.213513
siesta: DUext   =         0.000000
siesta: Exc     =     -1117.157949
siesta: eta*DQ  =         0.000000
siesta: Emadel  =         0.000000
siesta: Emeta   =         0.000000
siesta: Emolmec =         0.000000
siesta: Ekinion =         0.000000
siesta: Eharris =     -3094.133871
siesta: Etot    =     -3094.133871
siesta: FreeEng =     -3094.133871

siesta: Final energy (eV):
siesta:  Band Struct. =    -975.816864
siesta:       Kinetic =    1986.345529
siesta:       Hartree =     771.594112
siesta:       Eldau   =       0.000000
siesta:       Eso     =       0.000000
siesta:    Ext. field =       0.000000
siesta:   Exch.-corr. =   -1117.157949
siesta:  Ion-electron =   -3438.562831
siesta:       Ion-ion =   -1296.352732
siesta:       Ekinion =       0.000000
siesta:         Total =   -3094.133871
siesta:         Fermi =      -5.786206

siesta: Atomic forces (eV/Ang):
siesta:      1   -0.016185    0.008610    0.003328
siesta:      2    0.009639   -0.005314    0.003183
siesta:      3   -0.017446    0.009911   -0.001761
siesta:      4    0.011553   -0.006687   -0.001598
siesta:      5   -0.005487    0.002638    0.003352
siesta:      6    0.005517   -0.002948    0.002965
siesta:      7    0.004566   -0.002719   -0.002289
siesta:      8    0.008901   -0.004738   -0.001580
siesta:      9    0.007616   -0.003827    0.003365
siesta:     10    0.000509   -0.000527    0.002932
siesta:     11    0.010298   -0.005842   -0.002233
siesta:     12   -0.006226    0.003636   -0.001734
siesta:     13   -0.011039    0.007138    0.003417
siesta:     14    0.006314   -0.004050    0.002993
siesta:     15   -0.013601    0.008121   -0.001820
siesta:     16    0.005885   -0.003468   -0.001555
siesta: ----------------------------------------
siesta:    Tot    0.000814   -0.000066    0.010965

siesta: Stress tensor (static) (eV/Ang**3):
siesta:    -0.030847    0.000120    0.000003
siesta:     0.000120   -0.030709   -0.000003
siesta:     0.000003   -0.000003   -0.032173

siesta: Constrained stress tensor (static) (eV/Ang**3):
siesta:    -0.030847    0.000120    0.000003
siesta:     0.000120   -0.030709   -0.000003
siesta:     0.000003   -0.000003   -0.032173

siesta: Cell volume =        133.726670 Ang**3

siesta: Pressure (static):
siesta:                Solid            Molecule  Units
siesta:           0.00034028          0.00033838  Ry/Bohr**3
siesta:           0.03124321          0.03106879  eV/Ang**3
siesta:          50.05768022         49.77822942  kBar
(Free)E+ p_basis*V_orbitals  =       -3083.498925
(Free)Eharris+ p_basis*V_orbitals  =       -3083.498925
>> End of run:  24-NOV-2020  13:37:31
Job completed
