SystemName     nzeta                                                                           
SystemLabel     nzeta                                                                           
MPI.Nprocs.SIESTA         8     # default value
SpinPolarized              F     # default value
NonCollinearSpin              F     # default value
SpinOrbit              F     # default value
Spin     none                                 # default value
TimeReversalSymmetry              T     # default value
DebugObjects.Node         0     # default value
DebugObjects              F     # default value
XML.Write              F     # default value
timer_report_threshold          0.000000000         # default value
UseParallelTimer              T     # default value
UseTreeTimer              F     # default value
alloc_report_level         0     # default value
alloc_report_threshold          0.000000000         # default value
xc.functional     GGA                                                                             
xc.authors     PBE                                                                             
MM.Cutoff          30.00000000     Bohr     # default value
MM.UnitsEnergy     eV     # default value
MM.UnitsDistance     Ang     # default value
WriteIonPlotFiles              F     # default value
Atom.Debug.KB.Generation              F     # default value
KB.New.Reference.Orbitals              F     # default value
user-basis              F     # default value
user-basis-netcdf              F     # default value
ReparametrizePseudos              F     # default value
Restricted.Radial.Grid              T     # default value
Rmax.Radial.Grid          0.000000000         # default value
PAO.BasisSize     DZP                                                                             
PAO.BasisType     split                                                                           
PAO.SoftDefault              F     # default value
PAO.SoftInnerRadius         0.9000000000         # default value
PAO.SoftPotential          40.00000000         # default value
PAO.SplitNorm         0.1500000000         # default value
PAO.SplitNormH         -1.000000000         # default value
%block Chemical_species_label
Number_of_species              2
%block Chemical_species_label
    1   5     B
    2   7     N
%endblock Chemical_species_label
LDAU.ProjectorGenerationMethod         2     # default value
LDAU.EnergyShift         0.5000000000E-01 Ry     # default value
LDAU.CutoffNorm         0.9000000000         # default value
PAO.SoftDefault              F     # default value
PAO.SoftInnerRadius         0.9000000000         # default value
PAO.SoftPotential          40.00000000         # default value
LDAU.ThresholdTol         0.1000000000E-01     # default value
LDAU.PopTol         0.1000000000E-02     # default value
LDAU.PotentialShift              F     # default value
LDAU.FirstIteration              F     # default value
FilterCutoff          0.000000000     Ry     # default value
FilterTol          0.000000000     Ry     # default value
KB.Rmax          6.000000000     Bohr     # default value
PAO.EnergyShift         0.3674899422E-02         Ry
# above item originally: PAO.EnergyShift          50.00000000     meV       
PAO.SplitTailNorm              F     # default value
PAO.FixSplitTable              F     # default value
PAO.NewSplitCode              F     # default value
PAO.Filter              F     # default value
PAO.Keep.Findp.Bug              F     # default value
PAO.Filter              F     # default value
PAO.Filter              F     # default value
PAO.Filter              F     # default value
PAO.OldStylePolorbs              T     # default value
PAO.SplitTailNorm              F     # default value
PAO.FixSplitTable              F     # default value
PAO.NewSplitCode              F     # default value
PAO.Filter              F     # default value
Vna.Filter              F     # default value
PCC.Filter              F     # default value
FilterCutoff          0.000000000     Ry     # default value
FilterTol          0.000000000     Ry     # default value
KB.Rmax          6.000000000     Bohr     # default value
PAO.EnergyShift         0.3674899422E-02         Ry
# above item originally: PAO.EnergyShift          50.00000000     meV       
PAO.SplitTailNorm              F     # default value
PAO.FixSplitTable              F     # default value
PAO.NewSplitCode              F     # default value
PAO.Filter              F     # default value
PAO.Filter              F     # default value
PAO.Filter              F     # default value
PAO.Filter              F     # default value
PAO.OldStylePolorbs              T     # default value
PAO.SplitTailNorm              F     # default value
PAO.FixSplitTable              F     # default value
PAO.NewSplitCode              F     # default value
PAO.Filter              F     # default value
Vna.Filter              F     # default value
PCC.Filter              F     # default value
PAO.BasisType     split                                                                           
Atom-Setup-Only              F     # default value
UseStructFile              F     # default value
MD.UseStructFile              F     # default value
LatticeConstant          1.889726878           Bohr
# above item originally: LatticeConstant          1.000000000     Ang       
%block LatticeVectors
%block LatticeVectors
     5.012954616    0.000024807    0.000000115
    -2.506455827    4.341358452   -0.000000115
     0.000000145   -0.000000085    6.336166021
AtomicCoordinatesFormat     Ang                                                                             
NumberOfAtoms             16
ZM.UnitsLength     Bohr           # default value
ZM.UnitsAngle     rad            # default value
ZM.ForceTolLength         0.1555740000E-02 Ry/Bohr     # default value
ZM.ForceTolAngle         0.3565490000E-02 Ry/rad     # default value
ZM.MaxDisplLength         0.2000000000     Bohr     # default value
ZM.MaxDisplAngle         0.3000000000E-02 rad     # default value
ZM.CalcAllForces              F     # default value
%block AtomicCoordinatesAndAtomicSpecies
  0.00002     1.44712     1.38428     1
  1.25323     0.72357     4.55189     1
  0.00002     1.44712     4.95195     2
  1.25323     0.72357     1.78422     2
  2.50649     1.44713     1.38428     1
  3.75971     0.72359     4.55189     1
  2.50649     1.44713     4.95195     2
  3.75971     0.72359     1.78422     2
 -1.25321     3.61780     1.38428     1
  0.00001     2.89425     4.55189     1
 -1.25321     3.61780     4.95195     2
  0.00001     2.89425     1.78422     2
  1.25327     3.61781     1.38428     1
  2.50648     2.89426     4.55189     1
  1.25327     3.61781     4.95195     2
  2.50648     2.89426     1.78422     2
MD.UseSaveXV              T
MD.UseSaveZM              F     # default value
WriteCoorInitial              T     # default value
MD.InitialTimeStep         1     # default value
MD.FinalTimeStep         1     # default value
MD.TypeOfRun     CG                                                                              
MaxBondDistance          6.000000000     Bohr     # default value
LatticeConstant          1.889726878           Bohr
# above item originally: LatticeConstant          1.000000000     Ang       
Output-Structure-Only              F     # default value
WriteCoorXmol              T
#:physical? MaxWalltime              F
MaxWalltime         0.1797693135+309     # default value
#:physical? MaxWalltime.Slack              F
MaxWalltime.Slack          5.000000000         # default value
HSetupOnly              F     # default value
LongOutput              F     # default value
WriteDenchar              F     # default value
WriteMullikenPop         0     # default value
WriteHirshfeldPop              F     # default value
WriteVoronoiPop              F     # default value
PartialChargesAtEveryGeometry              F     # default value
PartialChargesAtEveryScfStep              F     # default value
MeshCutoff          200.0000000             Ry
# above item originally: MeshCutoff          200.0000000     Ry        
NetCharge          0.000000000         # default value
MinSCFIterations         0     # default value
MaxSCFIterations            200
SCFMustConverge              F     # default value
TS.MixH              T     # default value
MixHamiltonian              T     # default value
MixCharge              F     # default value
SCF.Mix     Hamiltonian     # default value
Compat-pre-v4-DM-H              F     # default value
SCF.MixAfterConvergence              F     # default value
SCF.Recompute-H-After-Scf              F     # default value
DM.NumberPulay             10
DM.NumberBroyden         0     # default value
DM.FIRE.Mixing              F     # default value
DM.MixSCF1              T     # default value
SCF.Mix.First              T     # default value
DM.PulayOnFile              F     # default value
DM.MixingWeight         0.3000000000    
DM.OccupancyTolerance         0.1000000000E-11     # default value
DM.NumberKick         0     # default value
DM.KickMixingWeight         0.5000000000         # default value
DM.RequireHarrisConvergence              F     # default value
SCF.Harris.Converge              F     # default value
DM.HarrisTolerance         0.7349806700E-05 Ry     # default value
SCF.Harris.Tolerance         0.7349806700E-05 Ry     # default value
SCF.DM.Converge              T     # default value
DM.Tolerance         0.1000000000E-04
SCF.DM.Tolerance         0.1000000000E-04     # default value
SCF.EDM.Converge              F     # default value
SCF.EDM.Tolerance         0.7349806700E-04 Ry     # default value
SCF.H.Converge              T     # default value
SCF.H.Tolerance         0.7349806700E-04 Ry     # default value
DM.RequireEnergyConvergence              F     # default value
SCF.FreeE.Converge              F     # default value
DM.EnergyTolerance         0.7349806700E-05 Ry     # default value
SCF.FreeE.Tolerance         0.7349806700E-05 Ry     # default value
MonitorForcesInSCF              F     # default value
SCF.MonitorForces              F     # default value
UseSaveData              F     # default value
DM.UseSaveDM              T
NeglNonOverlapInt              F     # default value
SolutionMethod     diagon                                                                          
Diag.DivideAndConquer              F
Diag.Memory          1.000000000         # default value
ElectronicTemperature         0.1837449711E-02         Ry
# above item originally: ElectronicTemperature          25.00000000     meV       
FixSpin              F     # default value
Spin.Fix              F     # default value
ON.MaxNumIter      1000     # default value
ON.etol         0.1000000000E-07     # default value
ON.eta          0.000000000     Ry     # default value
ON.eta_alpha          0.000000000     Ry     # default value
ON.eta_beta          0.000000000     Ry     # default value
On.RcLWF          9.500000000     Bohr     # default value
ON.UseSaveLWF              F     # default value
ON.functional     kim     # default value
ON.ChemicalPotentialUse              F     # default value
ON.ChemicalPotential              F     # default value
ON.ChemicalPotentialRc          9.500000000     Bohr     # default value
ON.ChemicalPotentialTemperature         0.5000000000E-01 Ry     # default value
ON.ChemicalPotentialOrder       100     # default value
MD.VariableCell              T
compat-pre-v4-dynamics              F     # default value
MD.TypeOfRun     CG                                                                              
MD.UseSaveCG              T
Optim.Broyden              F     # default value
MD.NumCGsteps            100
MD.MaxCGDispl         0.1889726878E-01       Bohr
# above item originally: MD.MaxCGDispl         0.1000000000E-01 Ang       
MD.MaxForceTol         0.3111479015E-03    Ry/Bohr
# above item originally: MD.MaxForceTol         0.8000000000E-02 eV/Ang    
MD.MaxStressTol         0.3398863420E-05 Ry/Bohr**3
# above item originally: MD.MaxStressTol         0.5000000000E-01 GPa       
GeometryMustConverge              F     # default value
MD.InitialTimeStep         1     # default value
MD.FinalTimeStep         1     # default value
MD.LengthTimeStep          1.000000000     fs     # default value
MD.Quench              F     # default value
MD.FireQuench              F     # default value
MD.InitialTemperature          0.000000000     K     # default value
MD.TargetTemperature          0.000000000     K     # default value
MD.TargetPressure         0.3398863420E-03 Ry/Bohr**3
# above item originally: MD.TargetPressure          5.000000000     GPa       
MD.NoseMass          100.0000000     Ry*fs**2     # default value
MD.ParrinelloRahmanMass          100.0000000     Ry*fs**2     # default value
MD.AnnealOption     TemperatureAndPressure     # default value
MD.TauRelax          100.0000000     fs     # default value
MD.BulkModulus         0.6797730000E-02 Ry/Bohr**3     # default value
MD.FCDispl         0.4000000000E-01 Bohr     # default value
MD.FCfirst         1     # default value
MD.FClast        16     # default value
UseSpatialDecomposition              F     # default value
UseDomainDecomposition              F     # default value
SCF.Mix.Spin     all     # default value
Mixer.Debug              F     # default value
Mixer.Debug.MPI              F     # default value
DM.NumberPulay             10
DM.NumberBroyden         0     # default value
DM.MixingWeight         0.3000000000    
DM.NumberKick         0     # default value
DM.KickMixingWeight         0.5000000000         # default value
SCF.LinearMixingAfterPulay              F     # default value
SCF.MixingWeightAfterPulay         0.3000000000         # default value
SCF.Mixer.History        10     # default value
SCF.Mixer.Weight         0.3000000000         # default value
SCF.Mixer.Kick         0     # default value
SCF.Mixer.Kick.Weight         0.5000000000         # default value
SCF.Mixer.Restart         0     # default value
SCF.Mixer.Restart.Save         1     # default value
SCF.Mixer.Method     Pulay     # default value
SCF.Mixer.Variant     original     # default value
SCF.Mixer.Linear.After        -1     # default value
SCF.Mixer.Linear.After.Weight         0.3000000000         # default value
Harris_functional              F     # default value
WriteKpoints              F     # default value
WriteForces              F     # default value
WriteDM              T
WriteDM.End.Of.Cycle              T     # default value
WriteH              F     # default value
WriteH.End.Of.Cycle              F     # default value
WriteDM.NetCDF              F     # default value
WriteDM.History.NetCDF              F     # default value
WriteDMHS.NetCDF              F     # default value
WriteDMHS.History.NetCDF              F     # default value
SCF.Read.Charge.NetCDF              F     # default value
SCF.Read.Deformation.Charge.NetCDF              F     # default value
SaveInitialChargeDensity              F     # default value
AnalyzeChargeDensityOnly              F     # default value
UseNewDiagk              F     # default value
WriteBands              F     # default value
WriteKbands              F     # default value
WriteEigenvalues              T
WriteCoorStep              F     # default value
WriteMDhistory              T
WriteMDXmol              T
Write.Graphviz     none     # default value
WriteCoorStep              F     # default value
SaveHS              F     # default value
FixAuxiliaryCell              F     # default value
NaiveAuxiliaryCell              F     # default value
ReInitialiseDM              T     # default value
DM.AllowReuse              T     # default value
DM.AllowExtrapolation              T     # default value
DM.History.Depth         1     # default value
DM.NormalizationTolerance         0.1000000000E-04     # default value
DM.NormalizeDuringSCF              T     # default value
MullikenInSCF              F     # default value
WarningMinimumAtomicDistance          1.000000000     Bohr     # default value
BornCharge              F     # default value
ChangeKgridInMD              F     # default value
Diag.ParallelOverK              T
MD.RelaxCellOnly              F     # default value
MD.RemoveIntraMolecularPressure              F     # default value
COOP.Write              F     # default value
SaveRho              F     # default value
SaveDeltaRho              F     # default value
SaveRhoXC              F     # default value
SaveElectrostaticPotential              F     # default value
SaveNeutralAtomPotential              F     # default value
SaveTotalPotential              F     # default value
SaveIonicCharge              F     # default value
SaveBaderCharge              F     # default value
SaveTotalCharge              F     # default value
Siesta2Wannier90.WriteMmn              F     # default value
Siesta2Wannier90.WriteUnk              F     # default value
Siesta2Wannier90.WriteAmn              F     # default value
Siesta2Wannier90.WriteEig              F     # default value
Siesta2Wannier90.NumberOfBandsUp         0     # default value
Siesta2Wannier90.NumberOfBandsDown         0     # default value
Siesta2Wannier90.NumberOfBands         0     # default value
DM.AllowReuse              T     # default value
DM.AllowExtrapolation              T     # default value
DM.AllowExtrapolation              F     # default value
RcSpatial          0.000000000     Bohr     # default value
ProcessorGridX         1     # default value
ProcessorGridY         1     # default value
ProcessorGridZ         1     # default value
processorY         2     # default value
blocksize        24     # default value
NumberOfEigenStates       208     # default value
TimeReversalSymmetryForKpoints              T     # default value
kgrid_cutoff          37.79453756           Bohr
# above item originally: kgrid_cutoff          20.00000000     Ang       
LongOutput              F     # default value
WriteWaveFunctions              F     # default value
ForceAuxCell              F     # default value
AtomicCoordinatesFormat     Ang                                                                             
AtomCoorFormatOut     Ang                                                                             
LatticeConstant          1.889726878           Bohr
# above item originally: LatticeConstant          1.000000000     Ang       
Sonly              F     # default value
File.DM.Init     nzeta.DM     # default value
Sonly              F     # default value
Debug.DHSCF              F     # default value
MeshSubDivisions         2     # default value
PROCS_PER_NODE         4     # default value
PROCS_PER_NODE         4     # default value
DirectPhi              F     # default value
SimulateDoping              F     # default value
Read-H-from-file              F     # default value
Diag.ParallelOverK              T
Diag.AllInOne              F     # default value
Diag.DivideAndConquer              F
Diag.NoExpert              F     # default value
Diag.PreRotate              F     # default value
Diag.Use2D              T     # default value
SingleExcitation              F     # default value
OccupationFunction     FD     # default value
OccupationFunction     FD     # default value
Use.Blocked.WriteMat              F     # default value
Use.Blocked.WriteMat              F     # default value
Use.Blocked.WriteMat              F     # default value
Use.Blocked.WriteMat              F     # default value
Use.Blocked.WriteMat              F     # default value
Use.Blocked.WriteMat              F     # default value
Use.Blocked.WriteMat              F     # default value
Use.Blocked.WriteMat              F     # default value
Use.Blocked.WriteMat              F     # default value
Use.Blocked.WriteMat              F     # default value
Use.Blocked.WriteMat              F     # default value
Use.Blocked.WriteMat              F     # default value
compute-forces              T     # default value
#:list? Grid.CellSampling              F
MD.ConstantVolume              F     # default value
MD.PreconditionVariableCell          9.448634400     Bohr     # default value
kgrid_cutoff          37.79453756           Bohr
# above item originally: kgrid_cutoff          20.00000000     Ang       
Sonly              F     # default value
UseDIISforDMExtrapolation              T     # default value
UseSVDExperimental              F     # default value
UseSVD              T     # default value
Sonly              F     # default value
PROCS_PER_NODE         4     # default value
PROCS_PER_NODE         4     # default value
Read-H-from-file              F     # default value
Use.Blocked.WriteMat              F     # default value
Use.Blocked.WriteMat              F     # default value
Use.Blocked.WriteMat              F     # default value
Use.Blocked.WriteMat              F     # default value
Use.Blocked.WriteMat              F     # default value
Use.Blocked.WriteMat              F     # default value
compute-forces              T     # default value
kgrid_cutoff          37.79453756           Bohr
# above item originally: kgrid_cutoff          20.00000000     Ang       
Sonly              F     # default value
UseDIISforDMExtrapolation              T     # default value
UseSVDExperimental              F     # default value
UseSVD              T     # default value
Sonly              F     # default value
PROCS_PER_NODE         4     # default value
PROCS_PER_NODE         4     # default value
Read-H-from-file              F     # default value
Use.Blocked.WriteMat              F     # default value
Use.Blocked.WriteMat              F     # default value
Use.Blocked.WriteMat              F     # default value
Use.Blocked.WriteMat              F     # default value
Use.Blocked.WriteMat              F     # default value
Use.Blocked.WriteMat              F     # default value
compute-forces              T     # default value
kgrid_cutoff          37.79453756           Bohr
# above item originally: kgrid_cutoff          20.00000000     Ang       
Sonly              F     # default value
UseDIISforDMExtrapolation              T     # default value
UseSVDExperimental              F     # default value
UseSVD              T     # default value
Sonly              F     # default value
PROCS_PER_NODE         4     # default value
PROCS_PER_NODE         4     # default value
Read-H-from-file              F     # default value
Use.Blocked.WriteMat              F     # default value
Use.Blocked.WriteMat              F     # default value
Use.Blocked.WriteMat              F     # default value
Use.Blocked.WriteMat              F     # default value
Use.Blocked.WriteMat              F     # default value
Use.Blocked.WriteMat              F     # default value
compute-forces              T     # default value
kgrid_cutoff          37.79453756           Bohr
# above item originally: kgrid_cutoff          20.00000000     Ang       
Sonly              F     # default value
UseDIISforDMExtrapolation              T     # default value
UseSVDExperimental              F     # default value
UseSVD              T     # default value
Sonly              F     # default value
PROCS_PER_NODE         4     # default value
PROCS_PER_NODE         4     # default value
Read-H-from-file              F     # default value
Use.Blocked.WriteMat              F     # default value
Use.Blocked.WriteMat              F     # default value
Use.Blocked.WriteMat              F     # default value
Use.Blocked.WriteMat              F     # default value
Use.Blocked.WriteMat              F     # default value
Use.Blocked.WriteMat              F     # default value
compute-forces              T     # default value
kgrid_cutoff          37.79453756           Bohr
# above item originally: kgrid_cutoff          20.00000000     Ang       
Sonly              F     # default value
UseDIISforDMExtrapolation              T     # default value
UseSVDExperimental              F     # default value
UseSVD              T     # default value
Sonly              F     # default value
PROCS_PER_NODE         4     # default value
PROCS_PER_NODE         4     # default value
Read-H-from-file              F     # default value
Use.Blocked.WriteMat              F     # default value
Use.Blocked.WriteMat              F     # default value
Use.Blocked.WriteMat              F     # default value
Use.Blocked.WriteMat              F     # default value
Use.Blocked.WriteMat              F     # default value
Use.Blocked.WriteMat              F     # default value
compute-forces              T     # default value
kgrid_cutoff          37.79453756           Bohr
# above item originally: kgrid_cutoff          20.00000000     Ang       
Sonly              F     # default value
UseDIISforDMExtrapolation              T     # default value
UseSVDExperimental              F     # default value
UseSVD              T     # default value
Sonly              F     # default value
PROCS_PER_NODE         4     # default value
PROCS_PER_NODE         4     # default value
Read-H-from-file              F     # default value
Use.Blocked.WriteMat              F     # default value
Use.Blocked.WriteMat              F     # default value
Use.Blocked.WriteMat              F     # default value
Use.Blocked.WriteMat              F     # default value
Use.Blocked.WriteMat              F     # default value
Use.Blocked.WriteMat              F     # default value
compute-forces              T     # default value
kgrid_cutoff          37.79453756           Bohr
# above item originally: kgrid_cutoff          20.00000000     Ang       
Sonly              F     # default value
UseDIISforDMExtrapolation              T     # default value
UseSVDExperimental              F     # default value
UseSVD              T     # default value
Sonly              F     # default value
PROCS_PER_NODE         4     # default value
PROCS_PER_NODE         4     # default value
Read-H-from-file              F     # default value
Use.Blocked.WriteMat              F     # default value
Use.Blocked.WriteMat              F     # default value
Use.Blocked.WriteMat              F     # default value
Use.Blocked.WriteMat              F     # default value
Use.Blocked.WriteMat              F     # default value
Use.Blocked.WriteMat              F     # default value
compute-forces              T     # default value
kgrid_cutoff          37.79453756           Bohr
# above item originally: kgrid_cutoff          20.00000000     Ang       
Sonly              F     # default value
UseDIISforDMExtrapolation              T     # default value
UseSVDExperimental              F     # default value
UseSVD              T     # default value
Sonly              F     # default value
PROCS_PER_NODE         4     # default value
PROCS_PER_NODE         4     # default value
Read-H-from-file              F     # default value
Use.Blocked.WriteMat              F     # default value
Use.Blocked.WriteMat              F     # default value
Use.Blocked.WriteMat              F     # default value
Use.Blocked.WriteMat              F     # default value
Use.Blocked.WriteMat              F     # default value
Use.Blocked.WriteMat              F     # default value
compute-forces              T     # default value
kgrid_cutoff          37.79453756           Bohr
# above item originally: kgrid_cutoff          20.00000000     Ang       
Sonly              F     # default value
UseDIISforDMExtrapolation              T     # default value
UseSVDExperimental              F     # default value
UseSVD              T     # default value
Sonly              F     # default value
PROCS_PER_NODE         4     # default value
PROCS_PER_NODE         4     # default value
Read-H-from-file              F     # default value
Use.Blocked.WriteMat              F     # default value
Use.Blocked.WriteMat              F     # default value
Use.Blocked.WriteMat              F     # default value
Use.Blocked.WriteMat              F     # default value
Use.Blocked.WriteMat              F     # default value
Use.Blocked.WriteMat              F     # default value
compute-forces              T     # default value
kgrid_cutoff          37.79453756           Bohr
# above item originally: kgrid_cutoff          20.00000000     Ang       
Sonly              F     # default value
UseDIISforDMExtrapolation              T     # default value
UseSVDExperimental              F     # default value
UseSVD              T     # default value
Sonly              F     # default value
PROCS_PER_NODE         4     # default value
PROCS_PER_NODE         4     # default value
Read-H-from-file              F     # default value
Use.Blocked.WriteMat              F     # default value
Use.Blocked.WriteMat              F     # default value
Use.Blocked.WriteMat              F     # default value
Use.Blocked.WriteMat              F     # default value
Use.Blocked.WriteMat              F     # default value
Use.Blocked.WriteMat              F     # default value
compute-forces              T     # default value
kgrid_cutoff          37.79453756           Bohr
# above item originally: kgrid_cutoff          20.00000000     Ang       
Sonly              F     # default value
UseDIISforDMExtrapolation              T     # default value
UseSVDExperimental              F     # default value
UseSVD              T     # default value
Sonly              F     # default value
PROCS_PER_NODE         4     # default value
PROCS_PER_NODE         4     # default value
Read-H-from-file              F     # default value
Use.Blocked.WriteMat              F     # default value
Use.Blocked.WriteMat              F     # default value
Use.Blocked.WriteMat              F     # default value
Use.Blocked.WriteMat              F     # default value
Use.Blocked.WriteMat              F     # default value
Use.Blocked.WriteMat              F     # default value
compute-forces              T     # default value
kgrid_cutoff          37.79453756           Bohr
# above item originally: kgrid_cutoff          20.00000000     Ang       
Sonly              F     # default value
UseDIISforDMExtrapolation              T     # default value
UseSVDExperimental              F     # default value
UseSVD              T     # default value
Sonly              F     # default value
PROCS_PER_NODE         4     # default value
PROCS_PER_NODE         4     # default value
Read-H-from-file              F     # default value
Use.Blocked.WriteMat              F     # default value
Use.Blocked.WriteMat              F     # default value
Use.Blocked.WriteMat              F     # default value
Use.Blocked.WriteMat              F     # default value
Use.Blocked.WriteMat              F     # default value
Use.Blocked.WriteMat              F     # default value
compute-forces              T     # default value
kgrid_cutoff          37.79453756           Bohr
# above item originally: kgrid_cutoff          20.00000000     Ang       
Sonly              F     # default value
UseDIISforDMExtrapolation              T     # default value
UseSVDExperimental              F     # default value
UseSVD              T     # default value
Sonly              F     # default value
PROCS_PER_NODE         4     # default value
PROCS_PER_NODE         4     # default value
Read-H-from-file              F     # default value
Use.Blocked.WriteMat              F     # default value
Use.Blocked.WriteMat              F     # default value
Use.Blocked.WriteMat              F     # default value
Use.Blocked.WriteMat              F     # default value
Use.Blocked.WriteMat              F     # default value
Use.Blocked.WriteMat              F     # default value
compute-forces              T     # default value
kgrid_cutoff          37.79453756           Bohr
# above item originally: kgrid_cutoff          20.00000000     Ang       
Sonly              F     # default value
UseDIISforDMExtrapolation              T     # default value
UseSVDExperimental              F     # default value
UseSVD              T     # default value
Sonly              F     # default value
PROCS_PER_NODE         4     # default value
PROCS_PER_NODE         4     # default value
Read-H-from-file              F     # default value
Use.Blocked.WriteMat              F     # default value
Use.Blocked.WriteMat              F     # default value
Use.Blocked.WriteMat              F     # default value
Use.Blocked.WriteMat              F     # default value
Use.Blocked.WriteMat              F     # default value
Use.Blocked.WriteMat              F     # default value
compute-forces              T     # default value
kgrid_cutoff          37.79453756           Bohr
# above item originally: kgrid_cutoff          20.00000000     Ang       
Sonly              F     # default value
UseDIISforDMExtrapolation              T     # default value
UseSVDExperimental              F     # default value
UseSVD              T     # default value
Sonly              F     # default value
PROCS_PER_NODE         4     # default value
PROCS_PER_NODE         4     # default value
Read-H-from-file              F     # default value
Use.Blocked.WriteMat              F     # default value
Use.Blocked.WriteMat              F     # default value
Use.Blocked.WriteMat              F     # default value
Use.Blocked.WriteMat              F     # default value
Use.Blocked.WriteMat              F     # default value
compute-forces              T     # default value
kgrid_cutoff          37.79453756           Bohr
# above item originally: kgrid_cutoff          20.00000000     Ang       
Sonly              F     # default value
UseDIISforDMExtrapolation              T     # default value
UseSVDExperimental              F     # default value
UseSVD              T     # default value
Sonly              F     # default value
PROCS_PER_NODE         4     # default value
PROCS_PER_NODE         4     # default value
Read-H-from-file              F     # default value
Use.Blocked.WriteMat              F     # default value
Use.Blocked.WriteMat              F     # default value
Use.Blocked.WriteMat              F     # default value
Use.Blocked.WriteMat              F     # default value
Use.Blocked.WriteMat              F     # default value
Use.Blocked.WriteMat              F     # default value
compute-forces              T     # default value
kgrid_cutoff          37.79453756           Bohr
# above item originally: kgrid_cutoff          20.00000000     Ang       
Sonly              F     # default value
UseDIISforDMExtrapolation              T     # default value
UseSVDExperimental              F     # default value
UseSVD              T     # default value
Sonly              F     # default value
PROCS_PER_NODE         4     # default value
PROCS_PER_NODE         4     # default value
Read-H-from-file              F     # default value
Use.Blocked.WriteMat              F     # default value
Use.Blocked.WriteMat              F     # default value
Use.Blocked.WriteMat              F     # default value
Use.Blocked.WriteMat              F     # default value
Use.Blocked.WriteMat              F     # default value
compute-forces              T     # default value
kgrid_cutoff          37.79453756           Bohr
# above item originally: kgrid_cutoff          20.00000000     Ang       
Sonly              F     # default value
UseDIISforDMExtrapolation              T     # default value
UseSVDExperimental              F     # default value
UseSVD              T     # default value
Sonly              F     # default value
PROCS_PER_NODE         4     # default value
PROCS_PER_NODE         4     # default value
Read-H-from-file              F     # default value
Use.Blocked.WriteMat              F     # default value
Use.Blocked.WriteMat              F     # default value
Use.Blocked.WriteMat              F     # default value
Use.Blocked.WriteMat              F     # default value
Use.Blocked.WriteMat              F     # default value
Use.Blocked.WriteMat              F     # default value
compute-forces              T     # default value
kgrid_cutoff          37.79453756           Bohr
# above item originally: kgrid_cutoff          20.00000000     Ang       
Sonly              F     # default value
UseDIISforDMExtrapolation              T     # default value
UseSVDExperimental              F     # default value
UseSVD              T     # default value
Sonly              F     # default value
PROCS_PER_NODE         4     # default value
PROCS_PER_NODE         4     # default value
Read-H-from-file              F     # default value
Use.Blocked.WriteMat              F     # default value
Use.Blocked.WriteMat              F     # default value
Use.Blocked.WriteMat              F     # default value
Use.Blocked.WriteMat              F     # default value
Use.Blocked.WriteMat              F     # default value
compute-forces              T     # default value
kgrid_cutoff          37.79453756           Bohr
# above item originally: kgrid_cutoff          20.00000000     Ang       
Sonly              F     # default value
UseDIISforDMExtrapolation              T     # default value
UseSVDExperimental              F     # default value
UseSVD              T     # default value
Sonly              F     # default value
PROCS_PER_NODE         4     # default value
PROCS_PER_NODE         4     # default value
Read-H-from-file              F     # default value
Use.Blocked.WriteMat              F     # default value
Use.Blocked.WriteMat              F     # default value
Use.Blocked.WriteMat              F     # default value
Use.Blocked.WriteMat              F     # default value
Use.Blocked.WriteMat              F     # default value
compute-forces              T     # default value
kgrid_cutoff          37.79453756           Bohr
# above item originally: kgrid_cutoff          20.00000000     Ang       
Sonly              F     # default value
UseDIISforDMExtrapolation              T     # default value
UseSVDExperimental              F     # default value
UseSVD              T     # default value
Sonly              F     # default value
PROCS_PER_NODE         4     # default value
PROCS_PER_NODE         4     # default value
Read-H-from-file              F     # default value
Use.Blocked.WriteMat              F     # default value
Use.Blocked.WriteMat              F     # default value
Use.Blocked.WriteMat              F     # default value
Use.Blocked.WriteMat              F     # default value
Use.Blocked.WriteMat              F     # default value
compute-forces              T     # default value
kgrid_cutoff          37.79453756           Bohr
# above item originally: kgrid_cutoff          20.00000000     Ang       
Sonly              F     # default value
UseDIISforDMExtrapolation              T     # default value
UseSVDExperimental              F     # default value
UseSVD              T     # default value
Sonly              F     # default value
PROCS_PER_NODE         4     # default value
PROCS_PER_NODE         4     # default value
Read-H-from-file              F     # default value
Use.Blocked.WriteMat              F     # default value
Use.Blocked.WriteMat              F     # default value
Use.Blocked.WriteMat              F     # default value
Use.Blocked.WriteMat              F     # default value
Use.Blocked.WriteMat              F     # default value
compute-forces              T     # default value
kgrid_cutoff          37.79453756           Bohr
# above item originally: kgrid_cutoff          20.00000000     Ang       
Sonly              F     # default value
UseDIISforDMExtrapolation              T     # default value
UseSVDExperimental              F     # default value
UseSVD              T     # default value
Sonly              F     # default value
PROCS_PER_NODE         4     # default value
PROCS_PER_NODE         4     # default value
Read-H-from-file              F     # default value
Use.Blocked.WriteMat              F     # default value
Use.Blocked.WriteMat              F     # default value
Use.Blocked.WriteMat              F     # default value
Use.Blocked.WriteMat              F     # default value
Use.Blocked.WriteMat              F     # default value
Use.Blocked.WriteMat              F     # default value
Use.Blocked.WriteMat              F     # default value
compute-forces              T     # default value
kgrid_cutoff          37.79453756           Bohr
# above item originally: kgrid_cutoff          20.00000000     Ang       
Sonly              F     # default value
UseDIISforDMExtrapolation              T     # default value
UseSVDExperimental              F     # default value
UseSVD              T     # default value
Sonly              F     # default value
PROCS_PER_NODE         4     # default value
PROCS_PER_NODE         4     # default value
Read-H-from-file              F     # default value
Use.Blocked.WriteMat              F     # default value
Use.Blocked.WriteMat              F     # default value
Use.Blocked.WriteMat              F     # default value
Use.Blocked.WriteMat              F     # default value
Use.Blocked.WriteMat              F     # default value
Use.Blocked.WriteMat              F     # default value
Use.Blocked.WriteMat              F     # default value
compute-forces              T     # default value
kgrid_cutoff          37.79453756           Bohr
# above item originally: kgrid_cutoff          20.00000000     Ang       
Sonly              F     # default value
UseDIISforDMExtrapolation              T     # default value
UseSVDExperimental              F     # default value
UseSVD              T     # default value
Sonly              F     # default value
PROCS_PER_NODE         4     # default value
PROCS_PER_NODE         4     # default value
Read-H-from-file              F     # default value
Use.Blocked.WriteMat              F     # default value
Use.Blocked.WriteMat              F     # default value
Use.Blocked.WriteMat              F     # default value
Use.Blocked.WriteMat              F     # default value
Use.Blocked.WriteMat              F     # default value
compute-forces              T     # default value
kgrid_cutoff          37.79453756           Bohr
# above item originally: kgrid_cutoff          20.00000000     Ang       
Sonly              F     # default value
UseDIISforDMExtrapolation              T     # default value
UseSVDExperimental              F     # default value
UseSVD              T     # default value
Sonly              F     # default value
PROCS_PER_NODE         4     # default value
PROCS_PER_NODE         4     # default value
Read-H-from-file              F     # default value
Use.Blocked.WriteMat              F     # default value
Use.Blocked.WriteMat              F     # default value
Use.Blocked.WriteMat              F     # default value
Use.Blocked.WriteMat              F     # default value
Use.Blocked.WriteMat              F     # default value
Use.Blocked.WriteMat              F     # default value
compute-forces              T     # default value
kgrid_cutoff          37.79453756           Bohr
# above item originally: kgrid_cutoff          20.00000000     Ang       
Sonly              F     # default value
UseDIISforDMExtrapolation              T     # default value
UseSVDExperimental              F     # default value
UseSVD              T     # default value
Sonly              F     # default value
PROCS_PER_NODE         4     # default value
PROCS_PER_NODE         4     # default value
Read-H-from-file              F     # default value
Use.Blocked.WriteMat              F     # default value
Use.Blocked.WriteMat              F     # default value
Use.Blocked.WriteMat              F     # default value
Use.Blocked.WriteMat              F     # default value
Use.Blocked.WriteMat              F     # default value
Use.Blocked.WriteMat              F     # default value
compute-forces              T     # default value
kgrid_cutoff          37.79453756           Bohr
# above item originally: kgrid_cutoff          20.00000000     Ang       
Sonly              F     # default value
UseDIISforDMExtrapolation              T     # default value
UseSVDExperimental              F     # default value
UseSVD              T     # default value
Sonly              F     # default value
PROCS_PER_NODE         4     # default value
PROCS_PER_NODE         4     # default value
Read-H-from-file              F     # default value
Use.Blocked.WriteMat              F     # default value
Use.Blocked.WriteMat              F     # default value
Use.Blocked.WriteMat              F     # default value
Use.Blocked.WriteMat              F     # default value
Use.Blocked.WriteMat              F     # default value
Use.Blocked.WriteMat              F     # default value
compute-forces              T     # default value
kgrid_cutoff          37.79453756           Bohr
# above item originally: kgrid_cutoff          20.00000000     Ang       
Sonly              F     # default value
UseDIISforDMExtrapolation              T     # default value
UseSVDExperimental              F     # default value
UseSVD              T     # default value
Sonly              F     # default value
PROCS_PER_NODE         4     # default value
PROCS_PER_NODE         4     # default value
Read-H-from-file              F     # default value
Use.Blocked.WriteMat              F     # default value
Use.Blocked.WriteMat              F     # default value
Use.Blocked.WriteMat              F     # default value
Use.Blocked.WriteMat              F     # default value
Use.Blocked.WriteMat              F     # default value
compute-forces              T     # default value
kgrid_cutoff          37.79453756           Bohr
# above item originally: kgrid_cutoff          20.00000000     Ang       
Sonly              F     # default value
UseDIISforDMExtrapolation              T     # default value
UseSVDExperimental              F     # default value
UseSVD              T     # default value
Sonly              F     # default value
PROCS_PER_NODE         4     # default value
PROCS_PER_NODE         4     # default value
Read-H-from-file              F     # default value
Use.Blocked.WriteMat              F     # default value
Use.Blocked.WriteMat              F     # default value
Use.Blocked.WriteMat              F     # default value
Use.Blocked.WriteMat              F     # default value
Use.Blocked.WriteMat              F     # default value
Use.Blocked.WriteMat              F     # default value
compute-forces              T     # default value
kgrid_cutoff          37.79453756           Bohr
# above item originally: kgrid_cutoff          20.00000000     Ang       
Sonly              F     # default value
UseDIISforDMExtrapolation              T     # default value
UseSVDExperimental              F     # default value
UseSVD              T     # default value
Sonly              F     # default value
PROCS_PER_NODE         4     # default value
PROCS_PER_NODE         4     # default value
Read-H-from-file              F     # default value
Use.Blocked.WriteMat              F     # default value
Use.Blocked.WriteMat              F     # default value
Use.Blocked.WriteMat              F     # default value
Use.Blocked.WriteMat              F     # default value
Use.Blocked.WriteMat              F     # default value
Use.Blocked.WriteMat              F     # default value
compute-forces              T     # default value
kgrid_cutoff          37.79453756           Bohr
# above item originally: kgrid_cutoff          20.00000000     Ang       
Sonly              F     # default value
UseDIISforDMExtrapolation              T     # default value
UseSVDExperimental              F     # default value
UseSVD              T     # default value
Sonly              F     # default value
PROCS_PER_NODE         4     # default value
PROCS_PER_NODE         4     # default value
Read-H-from-file              F     # default value
Use.Blocked.WriteMat              F     # default value
Use.Blocked.WriteMat              F     # default value
Use.Blocked.WriteMat              F     # default value
Use.Blocked.WriteMat              F     # default value
Use.Blocked.WriteMat              F     # default value
compute-forces              T     # default value
kgrid_cutoff          37.79453756           Bohr
# above item originally: kgrid_cutoff          20.00000000     Ang       
Sonly              F     # default value
UseDIISforDMExtrapolation              T     # default value
UseSVDExperimental              F     # default value
UseSVD              T     # default value
Sonly              F     # default value
PROCS_PER_NODE         4     # default value
PROCS_PER_NODE         4     # default value
Read-H-from-file              F     # default value
Use.Blocked.WriteMat              F     # default value
Use.Blocked.WriteMat              F     # default value
Use.Blocked.WriteMat              F     # default value
Use.Blocked.WriteMat              F     # default value
Use.Blocked.WriteMat              F     # default value
compute-forces              T     # default value
kgrid_cutoff          37.79453756           Bohr
# above item originally: kgrid_cutoff          20.00000000     Ang       
Sonly              F     # default value
UseDIISforDMExtrapolation              T     # default value
UseSVDExperimental              F     # default value
UseSVD              T     # default value
Sonly              F     # default value
PROCS_PER_NODE         4     # default value
PROCS_PER_NODE         4     # default value
Read-H-from-file              F     # default value
Use.Blocked.WriteMat              F     # default value
Use.Blocked.WriteMat              F     # default value
Use.Blocked.WriteMat              F     # default value
Use.Blocked.WriteMat              F     # default value
Use.Blocked.WriteMat              F     # default value
compute-forces              T     # default value
kgrid_cutoff          37.79453756           Bohr
# above item originally: kgrid_cutoff          20.00000000     Ang       
Sonly              F     # default value
UseDIISforDMExtrapolation              T     # default value
UseSVDExperimental              F     # default value
UseSVD              T     # default value
Sonly              F     # default value
PROCS_PER_NODE         4     # default value
PROCS_PER_NODE         4     # default value
Read-H-from-file              F     # default value
Use.Blocked.WriteMat              F     # default value
Use.Blocked.WriteMat              F     # default value
Use.Blocked.WriteMat              F     # default value
Use.Blocked.WriteMat              F     # default value
Use.Blocked.WriteMat              F     # default value
compute-forces              T     # default value
kgrid_cutoff          37.79453756           Bohr
# above item originally: kgrid_cutoff          20.00000000     Ang       
Sonly              F     # default value
UseDIISforDMExtrapolation              T     # default value
UseSVDExperimental              F     # default value
UseSVD              T     # default value
Sonly              F     # default value
PROCS_PER_NODE         4     # default value
PROCS_PER_NODE         4     # default value
Read-H-from-file              F     # default value
Use.Blocked.WriteMat              F     # default value
Use.Blocked.WriteMat              F     # default value
Use.Blocked.WriteMat              F     # default value
Use.Blocked.WriteMat              F     # default value
Use.Blocked.WriteMat              F     # default value
compute-forces              T     # default value
kgrid_cutoff          37.79453756           Bohr
# above item originally: kgrid_cutoff          20.00000000     Ang       
Sonly              F     # default value
UseDIISforDMExtrapolation              T     # default value
UseSVDExperimental              F     # default value
UseSVD              T     # default value
Sonly              F     # default value
PROCS_PER_NODE         4     # default value
PROCS_PER_NODE         4     # default value
Read-H-from-file              F     # default value
Use.Blocked.WriteMat              F     # default value
Use.Blocked.WriteMat              F     # default value
Use.Blocked.WriteMat              F     # default value
Use.Blocked.WriteMat              F     # default value
Use.Blocked.WriteMat              F     # default value
compute-forces              T     # default value
kgrid_cutoff          37.79453756           Bohr
# above item originally: kgrid_cutoff          20.00000000     Ang       
Sonly              F     # default value
UseDIISforDMExtrapolation              T     # default value
UseSVDExperimental              F     # default value
UseSVD              T     # default value
Sonly              F     # default value
PROCS_PER_NODE         4     # default value
PROCS_PER_NODE         4     # default value
Read-H-from-file              F     # default value
Use.Blocked.WriteMat              F     # default value
Use.Blocked.WriteMat              F     # default value
Use.Blocked.WriteMat              F     # default value
Use.Blocked.WriteMat              F     # default value
Use.Blocked.WriteMat              F     # default value
compute-forces              T     # default value
kgrid_cutoff          37.79453756           Bohr
# above item originally: kgrid_cutoff          20.00000000     Ang       
Sonly              F     # default value
UseDIISforDMExtrapolation              T     # default value
UseSVDExperimental              F     # default value
UseSVD              T     # default value
Sonly              F     # default value
PROCS_PER_NODE         4     # default value
PROCS_PER_NODE         4     # default value
Read-H-from-file              F     # default value
Use.Blocked.WriteMat              F     # default value
Use.Blocked.WriteMat              F     # default value
Use.Blocked.WriteMat              F     # default value
Use.Blocked.WriteMat              F     # default value
Use.Blocked.WriteMat              F     # default value
Use.Blocked.WriteMat              F     # default value
compute-forces              T     # default value
kgrid_cutoff          37.79453756           Bohr
# above item originally: kgrid_cutoff          20.00000000     Ang       
Sonly              F     # default value
UseDIISforDMExtrapolation              T     # default value
UseSVDExperimental              F     # default value
UseSVD              T     # default value
Sonly              F     # default value
PROCS_PER_NODE         4     # default value
PROCS_PER_NODE         4     # default value
Read-H-from-file              F     # default value
Use.Blocked.WriteMat              F     # default value
Use.Blocked.WriteMat              F     # default value
Use.Blocked.WriteMat              F     # default value
Use.Blocked.WriteMat              F     # default value
Use.Blocked.WriteMat              F     # default value
Use.Blocked.WriteMat              F     # default value
compute-forces              T     # default value
kgrid_cutoff          37.79453756           Bohr
# above item originally: kgrid_cutoff          20.00000000     Ang       
Sonly              F     # default value
UseDIISforDMExtrapolation              T     # default value
UseSVDExperimental              F     # default value
UseSVD              T     # default value
Sonly              F     # default value
PROCS_PER_NODE         4     # default value
PROCS_PER_NODE         4     # default value
Read-H-from-file              F     # default value
Use.Blocked.WriteMat              F     # default value
Use.Blocked.WriteMat              F     # default value
Use.Blocked.WriteMat              F     # default value
Use.Blocked.WriteMat              F     # default value
Use.Blocked.WriteMat              F     # default value
Use.Blocked.WriteMat              F     # default value
compute-forces              T     # default value
kgrid_cutoff          37.79453756           Bohr
# above item originally: kgrid_cutoff          20.00000000     Ang       
Sonly              F     # default value
UseDIISforDMExtrapolation              T     # default value
UseSVDExperimental              F     # default value
UseSVD              T     # default value
Sonly              F     # default value
PROCS_PER_NODE         4     # default value
PROCS_PER_NODE         4     # default value
Read-H-from-file              F     # default value
Use.Blocked.WriteMat              F     # default value
Use.Blocked.WriteMat              F     # default value
Use.Blocked.WriteMat              F     # default value
Use.Blocked.WriteMat              F     # default value
Use.Blocked.WriteMat              F     # default value
compute-forces              T     # default value
kgrid_cutoff          37.79453756           Bohr
# above item originally: kgrid_cutoff          20.00000000     Ang       
Sonly              F     # default value
UseDIISforDMExtrapolation              T     # default value
UseSVDExperimental              F     # default value
UseSVD              T     # default value
Sonly              F     # default value
PROCS_PER_NODE         4     # default value
PROCS_PER_NODE         4     # default value
Read-H-from-file              F     # default value
Use.Blocked.WriteMat              F     # default value
Use.Blocked.WriteMat              F     # default value
Use.Blocked.WriteMat              F     # default value
Use.Blocked.WriteMat              F     # default value
Use.Blocked.WriteMat              F     # default value
Use.Blocked.WriteMat              F     # default value
compute-forces              T     # default value
kgrid_cutoff          37.79453756           Bohr
# above item originally: kgrid_cutoff          20.00000000     Ang       
Sonly              F     # default value
UseDIISforDMExtrapolation              T     # default value
UseSVDExperimental              F     # default value
UseSVD              T     # default value
Sonly              F     # default value
PROCS_PER_NODE         4     # default value
PROCS_PER_NODE         4     # default value
Read-H-from-file              F     # default value
Use.Blocked.WriteMat              F     # default value
Use.Blocked.WriteMat              F     # default value
Use.Blocked.WriteMat              F     # default value
Use.Blocked.WriteMat              F     # default value
Use.Blocked.WriteMat              F     # default value
Use.Blocked.WriteMat              F     # default value
compute-forces              T     # default value
kgrid_cutoff          37.79453756           Bohr
# above item originally: kgrid_cutoff          20.00000000     Ang       
Sonly              F     # default value
UseDIISforDMExtrapolation              T     # default value
UseSVDExperimental              F     # default value
UseSVD              T     # default value
Sonly              F     # default value
PROCS_PER_NODE         4     # default value
PROCS_PER_NODE         4     # default value
Read-H-from-file              F     # default value
Use.Blocked.WriteMat              F     # default value
Use.Blocked.WriteMat              F     # default value
Use.Blocked.WriteMat              F     # default value
Use.Blocked.WriteMat              F     # default value
Use.Blocked.WriteMat              F     # default value
Use.Blocked.WriteMat              F     # default value
compute-forces              T     # default value
kgrid_cutoff          37.79453756           Bohr
# above item originally: kgrid_cutoff          20.00000000     Ang       
Sonly              F     # default value
UseDIISforDMExtrapolation              T     # default value
UseSVDExperimental              F     # default value
UseSVD              T     # default value
Sonly              F     # default value
PROCS_PER_NODE         4     # default value
PROCS_PER_NODE         4     # default value
Read-H-from-file              F     # default value
Use.Blocked.WriteMat              F     # default value
Use.Blocked.WriteMat              F     # default value
Use.Blocked.WriteMat              F     # default value
Use.Blocked.WriteMat              F     # default value
Use.Blocked.WriteMat              F     # default value
Use.Blocked.WriteMat              F     # default value
compute-forces              T     # default value
kgrid_cutoff          37.79453756           Bohr
# above item originally: kgrid_cutoff          20.00000000     Ang       
Sonly              F     # default value
UseDIISforDMExtrapolation              T     # default value
UseSVDExperimental              F     # default value
UseSVD              T     # default value
Sonly              F     # default value
PROCS_PER_NODE         4     # default value
PROCS_PER_NODE         4     # default value
Read-H-from-file              F     # default value
Use.Blocked.WriteMat              F     # default value
Use.Blocked.WriteMat              F     # default value
Use.Blocked.WriteMat              F     # default value
Use.Blocked.WriteMat              F     # default value
Use.Blocked.WriteMat              F     # default value
Use.Blocked.WriteMat              F     # default value
compute-forces              T     # default value
kgrid_cutoff          37.79453756           Bohr
# above item originally: kgrid_cutoff          20.00000000     Ang       
Sonly              F     # default value
UseDIISforDMExtrapolation              T     # default value
UseSVDExperimental              F     # default value
UseSVD              T     # default value
Sonly              F     # default value
PROCS_PER_NODE         4     # default value
PROCS_PER_NODE         4     # default value
Read-H-from-file              F     # default value
Use.Blocked.WriteMat              F     # default value
Use.Blocked.WriteMat              F     # default value
Use.Blocked.WriteMat              F     # default value
Use.Blocked.WriteMat              F     # default value
Use.Blocked.WriteMat              F     # default value
compute-forces              T     # default value
kgrid_cutoff          37.79453756           Bohr
# above item originally: kgrid_cutoff          20.00000000     Ang       
Sonly              F     # default value
UseDIISforDMExtrapolation              T     # default value
UseSVDExperimental              F     # default value
UseSVD              T     # default value
Sonly              F     # default value
PROCS_PER_NODE         4     # default value
PROCS_PER_NODE         4     # default value
Read-H-from-file              F     # default value
Use.Blocked.WriteMat              F     # default value
Use.Blocked.WriteMat              F     # default value
Use.Blocked.WriteMat              F     # default value
Use.Blocked.WriteMat              F     # default value
Use.Blocked.WriteMat              F     # default value
compute-forces              T     # default value
kgrid_cutoff          37.79453756           Bohr
# above item originally: kgrid_cutoff          20.00000000     Ang       
Sonly              F     # default value
UseDIISforDMExtrapolation              T     # default value
UseSVDExperimental              F     # default value
UseSVD              T     # default value
Sonly              F     # default value
PROCS_PER_NODE         4     # default value
PROCS_PER_NODE         4     # default value
Read-H-from-file              F     # default value
Use.Blocked.WriteMat              F     # default value
Use.Blocked.WriteMat              F     # default value
Use.Blocked.WriteMat              F     # default value
Use.Blocked.WriteMat              F     # default value
Use.Blocked.WriteMat              F     # default value
compute-forces              T     # default value
kgrid_cutoff          37.79453756           Bohr
# above item originally: kgrid_cutoff          20.00000000     Ang       
Sonly              F     # default value
UseDIISforDMExtrapolation              T     # default value
UseSVDExperimental              F     # default value
UseSVD              T     # default value
Sonly              F     # default value
PROCS_PER_NODE         4     # default value
PROCS_PER_NODE         4     # default value
Read-H-from-file              F     # default value
Use.Blocked.WriteMat              F     # default value
Use.Blocked.WriteMat              F     # default value
Use.Blocked.WriteMat              F     # default value
Use.Blocked.WriteMat              F     # default value
Use.Blocked.WriteMat              F     # default value
compute-forces              T     # default value
kgrid_cutoff          37.79453756           Bohr
# above item originally: kgrid_cutoff          20.00000000     Ang       
Sonly              F     # default value
UseDIISforDMExtrapolation              T     # default value
UseSVDExperimental              F     # default value
UseSVD              T     # default value
Sonly              F     # default value
PROCS_PER_NODE         4     # default value
PROCS_PER_NODE         4     # default value
Read-H-from-file              F     # default value
Use.Blocked.WriteMat              F     # default value
Use.Blocked.WriteMat              F     # default value
Use.Blocked.WriteMat              F     # default value
Use.Blocked.WriteMat              F     # default value
Use.Blocked.WriteMat              F     # default value
compute-forces              T     # default value
Read-H-from-file              F     # default value
WriteCoorXmol              T
WriteCoorCerius              F     # default value
BasisPressure         0.2000000000     GPa     # default value
OpticalCalculation              F     # default value
