
                           ***********************       
                           *  WELCOME TO SIESTA  *       
                           ***********************       

reinit: Reading from standard input
reinit: Dumped input in INPUT_TMP.06843
************************** Dump of input data file ****************************
SystemName            nzeta
SystemLabel           nzeta
NumberOfSpecies         2
NumberOfAtoms          16
%block Chemical_Species_label
   1   5     B
   2   7     N
%endblock Chemical_Species_label
PAO.BasisType         split
PAO.BasisSize         DZP
PAO.EnergyShift       50  meV
LatticeConstant      1.0   Ang
#%block LatticeParameters
#4.7890    4.7890    4.1537   90.0000   90.0000  120.0000
#%endblock LatticeParameters
%block LatticeVectors
    5.012954616    0.000024807    0.000000115
   -2.506455827    4.341358452   -0.000000115
    0.000000145   -0.000000085    6.336166021
%endblock LatticeVectors
MeshCutoff            200. Ry       # Mesh cutoff. real space mesh
kgrid_cutoff        20. Ang
#%block kgrid_Monkhorst_Pack
# 1  0  0  0.0
# 0  1  0  0.0
# 0  0  1  0.0
#%endblock kgrid_Monkhorst_Pack
#
BandLinesScale  pi/a
#
XC.Functional          GGA
XC.Authors             PBE
MaxSCFIterations       200
DM.NumberPulay         10           # One Pulay every 5 iter
DM.MixingWeight       0.30          # New DM amount for next SCF cycle
DM.Tolerance          1.0d-5        # Tolerance in maximum difference
DM.UseSaveDM          true          # to use continuae..ion files
Diag.DivideAndConquer   false
Diag.ParallelOverK      true
SolutionMethod        diagon        # OrderN or Diagon
ElectronicTemperature  25 meV       # Temp. for Fermi smearing
# SpinPolarized         true
# MD options
MD.VariableCell        TRUE
MD.TypeOfRun           CG
MD.NumCGsteps          100
MD.MaxCGDispl          0.01 Ang
MD.MaxForceTol         0.008 eV/Ang
MD.TargetPressure      5.0 GPa
MD.MaxStressTol        0.05 GPa
%block AtomicCoordinateOrigin
0.000 0.000 0.000
%endblock AtomicCoordinateOrigin
WriteDM                true
WriteEigenvalues       true
WriteCoorXmol          true
WriteMDXmol            true
WriteMDHistory         true
WriteXml               false
MD.UseSaveCG           true
MD.UseSaveXV           true
# Atomic  inates
AtomicCoordinatesFormat  Ang    # Format for  inates
AtomCoorFormatOut        Ang
%block AtomicCoordinatesAndAtomicSpecies
 0.00002     1.44712     1.38428     1
 1.25323     0.72357     4.55189     1
 0.00002     1.44712     4.95195     2
 1.25323     0.72357     1.78422     2
 2.50649     1.44713     1.38428     1
 3.75971     0.72359     4.55189     1
 2.50649     1.44713     4.95195     2
 3.75971     0.72359     1.78422     2
-1.25321     3.61780     1.38428     1
 0.00001     2.89425     4.55189     1
-1.25321     3.61780     4.95195     2
 0.00001     2.89425     1.78422     2
 1.25327     3.61781     1.38428     1
 2.50648     2.89426     4.55189     1
 1.25327     3.61781     4.95195     2
 2.50648     2.89426     1.78422     2
%endblock AtomicCoordinatesAndAtomicSpecies
************************** End of input data file *****************************

reinit: -----------------------------------------------------------------------
reinit: System Name: nzeta
reinit: -----------------------------------------------------------------------
reinit: System Label: nzeta
reinit: -----------------------------------------------------------------------
Siesta Version: siesta-4.1--736
Architecture  : unknown
Compiler flags: mpifort -fPIC -O2 -xCore-AVX2 -ftz -fp-speculation=safe -fp-model source
PP flags      : -DFC_HAVE_ABORT -DMPI -DCDF -I/cvmfs/soft.computecanada.ca/easybuild/softwaree/2017/avx2/Compiler/intel2018.3/netcdf-fortran/4.4.4/include
Libraries     : -Wl,-Bstatic -Wl,--start-group -lmkl_scalapack_lp64 -lmkl_blacs_openmpi_lp64  -lmkl_intel_lp64 -lmkl_sequential -lmkl_core -Wl,--end-group -Wl,-Bdynamic -lnetcdff
PARALLEL version
NetCDF support

* Running on 8 nodes in parallel
>> Start of run:  24-NOV-2020  12:48:32

initatom: Reading input for the pseudopotentials and atomic orbitals ----------
Species number:   1 Atomic number:    5 Label: B
Species number:   2 Atomic number:    7 Label: N
 
Ground state valence configuration:   2s02  2p01
Reading pseudopotential information in formatted form from B.psf

Valence configuration for pseudopotential generation:
2s( 2.00) rc: 1.74
2p( 1.00) rc: 1.74
3d( 0.00) rc: 1.74
4f( 0.00) rc: 1.74
Ground state valence configuration:   2s02  2p03
Reading pseudopotential information in formatted form from N.psf

Valence configuration for pseudopotential generation:
2s( 2.00) rc: 1.48
2p( 3.00) rc: 1.48
3d( 0.00) rc: 1.48
4f( 0.00) rc: 1.48
For B, standard SIESTA heuristics set lmxkb to 3
 (one more than the basis l, including polarization orbitals).
Use PS.lmax or PS.KBprojectors blocks to override.
For N, standard SIESTA heuristics set lmxkb to 3
 (one more than the basis l, including polarization orbitals).
Use PS.lmax or PS.KBprojectors blocks to override.

<basis_specs>
===============================================================================
B                    Z=   5    Mass=  10.810        Charge= 0.17977+309
Lmxo=1 Lmxkb= 3    BasisType=split      Semic=F
L=0  Nsemic=0  Cnfigmx=2
          n=1  nzeta=2  polorb=0
            splnorm:   0.15000    
               vcte:    0.0000    
               rinn:    0.0000    
               qcoe:    0.0000    
               qyuk:    0.0000    
               qwid:   0.10000E-01
                rcs:    0.0000      0.0000    
            lambdas:    1.0000      1.0000    
L=1  Nsemic=0  Cnfigmx=2
          n=1  nzeta=2  polorb=1
            splnorm:   0.15000    
               vcte:    0.0000    
               rinn:    0.0000    
               qcoe:    0.0000    
               qyuk:    0.0000    
               qwid:   0.10000E-01
                rcs:    0.0000      0.0000    
            lambdas:    1.0000      1.0000    
-------------------------------------------------------------------------------
L=0  Nkbl=1  erefs: 0.17977+309
L=1  Nkbl=1  erefs: 0.17977+309
L=2  Nkbl=1  erefs: 0.17977+309
L=3  Nkbl=1  erefs: 0.17977+309
===============================================================================
</basis_specs>

atom: Called for B                     (Z =   5)

read_vps: Pseudopotential generation method:
read_vps: ATM3      Troullier-Martins                       
Total valence charge:    3.00000

read_vps: Pseudopotential includes a core correction:
read_vps: Pseudo-core for xc-correction

xc_check: Exchange-correlation functional:
xc_check: GGA Perdew, Burke & Ernzerhof 1996
V l=0 = -2*Zval/r beyond r=  1.7165
V l=1 = -2*Zval/r beyond r=  1.7165
V l=2 = -2*Zval/r beyond r=  1.7165
V l=3 = -2*Zval/r beyond r=  1.6951
All V_l potentials equal beyond r=  1.7165
This should be close to max(r_c) in ps generation
All pots = -2*Zval/r beyond r=  1.7165

VLOCAL1: 99.0% of the norm of Vloc inside     14.733 Ry
VLOCAL1: 99.9% of the norm of Vloc inside     33.577 Ry
atom: Maximum radius for 4*pi*r*r*local-pseudopot. charge    2.04484
atom: Maximum radius for r*vlocal+2*Zval:    1.75994
GHOST: No ghost state for L =  0
GHOST: No ghost state for L =  1
GHOST: No ghost state for L =  2
GHOST: No ghost state for L =  3

KBgen: Kleinman-Bylander projectors: 
   l= 0   rc=  1.897051   el= -0.693730   Ekb=  4.595746   kbcos=  0.286105
   l= 1   rc=  1.920920   el= -0.265236   Ekb= -2.350715   kbcos= -0.315747
   l= 2   rc=  2.044840   el=  0.002055   Ekb= -0.690767   kbcos= -0.013822
   l= 3   rc=  2.149707   el=  0.003188   Ekb= -0.315358   kbcos= -0.002055

KBgen: Total number of  Kleinman-Bylander projectors:   16
atom: -------------------------------------------------------------------------

atom: SANKEY-TYPE ORBITALS:
atom: Selected multiple-zeta basis: split     

SPLIT: Orbitals with angular momentum L= 0

SPLIT: Basis orbitals for state 2s

SPLIT: PAO cut-off radius determined from an
SPLIT: energy shift=  0.003675 Ry

   izeta = 1
                 lambda =    1.000000
                     rc =    5.992324
                 energy =   -0.690528
                kinetic =    0.558121
    potential(screened) =   -1.248649
       potential(ionic) =   -3.246844

   izeta = 2
                 rmatch =    4.275693
              splitnorm =    0.150000
                 energy =   -0.596762
                kinetic =    0.870329
    potential(screened) =   -1.467091
       potential(ionic) =   -3.591550

SPLIT: Orbitals with angular momentum L= 1

SPLIT: Basis orbitals for state 2p

SPLIT: PAO cut-off radius determined from an
SPLIT: energy shift=  0.003675 Ry

   izeta = 1
                 lambda =    1.000000
                     rc =    7.504449
                 energy =   -0.261978
                kinetic =    1.444196
    potential(screened) =   -1.706173
       potential(ionic) =   -3.607531

   izeta = 2
                 rmatch =    4.725423
              splitnorm =    0.150000
                 energy =   -0.178742
                kinetic =    2.159898
    potential(screened) =   -2.338640
       potential(ionic) =   -4.437503

POLgen: Perturbative polarization orbital with L=  2

POLgen: Polarization orbital for state 2p

   izeta = 1
                     rc =    7.504449
                 energy =    0.624150
                kinetic =    1.361189
    potential(screened) =   -0.737039
       potential(ionic) =   -2.313842
atom: Total number of Sankey-type orbitals: 13

atm_pop: Valence configuration (for local Pseudopot. screening):
 2s( 2.00)                                                            
 2p( 1.00)                                                            
Vna: chval, zval:    3.00000   3.00000

Vna:  Cut-off radius for the neutral-atom potential:   7.504449
comcore: Pseudo-core radius Rcore=  2.122997

atom: _________________________________________________________________________

<basis_specs>
===============================================================================
N                    Z=   7    Mass=  14.010        Charge= 0.17977+309
Lmxo=1 Lmxkb= 3    BasisType=split      Semic=F
L=0  Nsemic=0  Cnfigmx=2
          n=1  nzeta=2  polorb=0
            splnorm:   0.15000    
               vcte:    0.0000    
               rinn:    0.0000    
               qcoe:    0.0000    
               qyuk:    0.0000    
               qwid:   0.10000E-01
                rcs:    0.0000      0.0000    
            lambdas:    1.0000      1.0000    
L=1  Nsemic=0  Cnfigmx=2
          n=1  nzeta=2  polorb=1
            splnorm:   0.15000    
               vcte:    0.0000    
               rinn:    0.0000    
               qcoe:    0.0000    
               qyuk:    0.0000    
               qwid:   0.10000E-01
                rcs:    0.0000      0.0000    
            lambdas:    1.0000      1.0000    
-------------------------------------------------------------------------------
L=0  Nkbl=1  erefs: 0.17977+309
L=1  Nkbl=1  erefs: 0.17977+309
L=2  Nkbl=1  erefs: 0.17977+309
L=3  Nkbl=1  erefs: 0.17977+309
===============================================================================
</basis_specs>

atom: Called for N                     (Z =   7)

read_vps: Pseudopotential generation method:
read_vps: ATM3      Troullier-Martins                       
Total valence charge:    5.00000

read_vps: Pseudopotential includes a core correction:
read_vps: Pseudo-core for xc-correction

xc_check: Exchange-correlation functional:
xc_check: GGA Perdew, Burke & Ernzerhof 1996
V l=0 = -2*Zval/r beyond r=  1.4606
V l=1 = -2*Zval/r beyond r=  1.4606
V l=2 = -2*Zval/r beyond r=  1.4606
V l=3 = -2*Zval/r beyond r=  1.4606
All V_l potentials equal beyond r=  1.4606
This should be close to max(r_c) in ps generation
All pots = -2*Zval/r beyond r=  1.4606

VLOCAL1: 99.0% of the norm of Vloc inside     20.347 Ry
VLOCAL1: 99.9% of the norm of Vloc inside     46.372 Ry
atom: Maximum radius for 4*pi*r*r*local-pseudopot. charge    1.76189
atom: Maximum radius for r*vlocal+2*Zval:    1.53550
GHOST: No ghost state for L =  0
GHOST: No ghost state for L =  1
GHOST: No ghost state for L =  2
GHOST: No ghost state for L =  3

KBgen: Kleinman-Bylander projectors: 
   l= 0   rc=  1.634559   el= -1.363963   Ekb=  5.296955   kbcos=  0.335621
   l= 1   rc=  1.614250   el= -0.521451   Ekb= -5.259161   kbcos= -0.433408
   l= 2   rc=  1.718383   el=  0.001991   Ekb= -1.271464   kbcos= -0.007566
   l= 3   rc=  1.761893   el=  0.003093   Ekb= -0.494769   kbcos= -0.001015

KBgen: Total number of  Kleinman-Bylander projectors:   16
atom: -------------------------------------------------------------------------

atom: SANKEY-TYPE ORBITALS:
atom: Selected multiple-zeta basis: split     

SPLIT: Orbitals with angular momentum L= 0

SPLIT: Basis orbitals for state 2s

SPLIT: PAO cut-off radius determined from an
SPLIT: energy shift=  0.003675 Ry

   izeta = 1
                 lambda =    1.000000
                     rc =    4.388595
                 energy =   -1.360245
                kinetic =    1.158929
    potential(screened) =   -2.519174
       potential(ionic) =   -8.027872

   izeta = 2
                 rmatch =    2.941647
              splitnorm =    0.150000
                 energy =   -1.183606
                kinetic =    1.761198
    potential(screened) =   -2.944804
       potential(ionic) =   -8.851642

SPLIT: Orbitals with angular momentum L= 1

SPLIT: Basis orbitals for state 2p

SPLIT: PAO cut-off radius determined from an
SPLIT: energy shift=  0.003675 Ry

   izeta = 1
                 lambda =    1.000000
                     rc =    5.496027
                 energy =   -0.517878
                kinetic =    3.386838
    potential(screened) =   -3.904716
       potential(ionic) =   -9.203549

   izeta = 2
                 rmatch =    3.092486
              splitnorm =    0.150000
                 energy =   -0.339364
                kinetic =    5.009477
    potential(screened) =   -5.348841
       potential(ionic) =  -11.257254

POLgen: Perturbative polarization orbital with L=  2

POLgen: Polarization orbital for state 2p

   izeta = 1
                     rc =    5.496027
                 energy =    1.497880
                kinetic =    3.066405
    potential(screened) =   -1.568525
       potential(ionic) =   -5.774358
atom: Total number of Sankey-type orbitals: 13

atm_pop: Valence configuration (for local Pseudopot. screening):
 2s( 2.00)                                                            
 2p( 3.00)                                                            
Vna: chval, zval:    5.00000   5.00000

Vna:  Cut-off radius for the neutral-atom potential:   5.496027
comcore: Pseudo-core radius Rcore=  1.554824

atom: _________________________________________________________________________

prinput: Basis input ----------------------------------------------------------

PAO.BasisType split     

%block ChemicalSpeciesLabel
    1    5 B                       # Species index, atomic number, species label
    2    7 N                       # Species index, atomic number, species label
%endblock ChemicalSpeciesLabel

%block PAO.Basis                 # Define Basis set
B                     2                    # Species label, number of l-shells
 n=2   0   2                         # n, l, Nzeta 
   5.992      4.276   
   1.000      1.000   
 n=2   1   2 P   1                   # n, l, Nzeta, Polarization, NzetaPol
   7.504      4.725   
   1.000      1.000   
N                     2                    # Species label, number of l-shells
 n=2   0   2                         # n, l, Nzeta 
   4.389      2.942   
   1.000      1.000   
 n=2   1   2 P   1                   # n, l, Nzeta, Polarization, NzetaPol
   5.496      3.092   
   1.000      1.000   
%endblock PAO.Basis

prinput: ----------------------------------------------------------------------

Dumping basis to NetCDF file B.ion.nc
Dumping basis to NetCDF file N.ion.nc
coor:   Atomic-coordinates input format  =     Cartesian coordinates
coor:                                          (in Angstroms)

siesta: WARNING: XV file not found

siesta: Atomic coordinates (Bohr) and species
siesta:      0.00004   2.73466   2.61591  1        1
siesta:      2.36826   1.36735   8.60183  1        2
siesta:      0.00004   2.73466   9.35783  2        3
siesta:      2.36826   1.36735   3.37169  2        4
siesta:      4.73658   2.73468   2.61591  1        5
siesta:      7.10483   1.36739   8.60183  1        6
siesta:      4.73658   2.73468   9.35783  2        7
siesta:      7.10483   1.36739   3.37169  2        8
siesta:     -2.36822   6.83665   2.61591  1        9
siesta:      0.00002   5.46934   8.60183  1       10
siesta:     -2.36822   6.83665   9.35783  2       11
siesta:      0.00002   5.46934   3.37169  2       12
siesta:      2.36834   6.83667   2.61591  1       13
siesta:      4.73656   5.46936   8.60183  1       14
siesta:      2.36834   6.83667   9.35783  2       15
siesta:      4.73656   5.46936   3.37169  2       16

siesta: System type = bulk      

initatomlists: Number of atoms, orbitals, and projectors:     16   208   256

coxmol: Writing XMOL coordinates into file nzeta.xyz                                                           

siesta: ******************** Simulation parameters ****************************
siesta:
siesta: The following are some of the parameters of the simulation.
siesta: A complete list of the parameters used, including default values,
siesta: can be found in file out.fdf
siesta:
redata: Spin configuration                          = none
redata: Number of spin components                   = 1
redata: Time-Reversal Symmetry                      = T
redata: Spin-spiral                                 = F
redata: Long output                                 =   F
redata: Number of Atomic Species                    =        2
redata: Charge density info will appear in .RHO file
redata: Write Mulliken Pop.                         = NO
redata: Mesh Cutoff                                 =   200.0000 Ry
redata: Net charge of the system                    =     0.0000 |e|
redata: Min. number of SCF Iter                     =        0
redata: Max. number of SCF Iter                     =      200
redata: SCF mix quantity                            = Hamiltonian
redata: Mix DM or H after convergence               =   F
redata: Recompute H after scf cycle                 =   F
redata: Mix DM in first SCF step                    =   T
redata: Write Pulay info on disk                    =   F
redata: New DM Mixing Weight                        =     0.3000
redata: New DM Occupancy tolerance                  = 0.000000000001
redata: No kicks to SCF
redata: DM Mixing Weight for Kicks                  =     0.5000
redata: Require Harris convergence for SCF          =   F
redata: Harris energy tolerance for SCF             =     0.000100 eV
redata: Require DM convergence for SCF              =   T
redata: DM tolerance for SCF                        =     0.0000
redata: Require EDM convergence for SCF             =   F
redata: EDM tolerance for SCF                       =     0.001000 eV
redata: Require H convergence for SCF               =   T
redata: Hamiltonian tolerance for SCF               =     0.001000 eV
redata: Require (free) Energy convergence for SCF   =   F
redata: (free) Energy tolerance for SCF             =     0.000100 eV
redata: Using Saved Data (generic)                  =   F
redata: Use continuation files for DM               =   T
redata: Neglect nonoverlap interactions             =   F
redata: Method of Calculation                       = Diagonalization
redata: Divide and Conquer                          =   F
redata: Electronic Temperature                      =   290.1109 K
redata: Fix the spin of the system                  =   F
redata: Dynamics option                             = CG coord. optimization
redata: Variable cell                               =   T
redata: Use continuation files for CG               =   T
redata: Max atomic displ per move                   =     0.0100 Ang
redata: Maximum number of CG moves                  =      100
redata: Force tolerance                             =     0.0080 eV/Ang
redata: Stress tolerance                            =     0.0500 GPa
mix.SCF: Pulay mixing                            = Pulay
mix.SCF:    Variant                              = stable
mix.SCF:    History steps                        = 10
mix.SCF:    Linear mixing weight                 =     0.300000
mix.SCF:    Mixing weight                        =     0.300000
mix.SCF:    SVD condition                        = 0.1000E-07
redata: ***********************************************************************

%block SCF.Mixers
  Pulay
%endblock SCF.Mixers

%block SCF.Mixer.Pulay
  # Mixing method
  method pulay
  variant stable

  # Mixing options
  weight 0.3000
  weight.linear 0.3000
  history 10
%endblock SCF.Mixer.Pulay
 
DM_history_depth set to one: no extrapolation allowed by default for geometry relaxation
Size of DM history Fstack: 1
Total number of electrons:    64.000000
Total ionic charge:    64.000000

* ProcessorY, Blocksize:    2  24


* Orbital distribution balance (max,min):    40    24

 Kpoints in:          224 . Kpoints trimmed:          224

siesta: k-grid: Number of k-points =   224
siesta: k-grid: Cutoff (effective) =    20.052 Ang
siesta: k-grid: Supercell and displacements
siesta: k-grid:    8   0   0      0.500
siesta: k-grid:    0   8   0      0.500
siesta: k-grid:    0   0   7      0.000

superc: Internal auxiliary supercell:     5 x     5 x     3  =      75
superc: Number of atoms, orbitals, and projectors:   1200  15600  19200
 

                     ====================================
                        Begin CG opt. move =      0
                     ====================================

superc: Internal auxiliary supercell:     5 x     5 x     3  =      75
superc: Number of atoms, orbitals, and projectors:   1200  15600  19200

outcell: Unit cell vectors (Ang):
        5.012955    0.000025    0.000000
       -2.506456    4.341358   -0.000000
        0.000000   -0.000000    6.336166

outcell: Cell vector modules (Ang)   :    5.012955    5.012955    6.336166
outcell: Cell angles (23,13,12) (deg):     90.0000     90.0000    119.9994
outcell: Cell volume (Ang**3)        :    137.8946
<dSpData1D:S at geom step 0
  <sparsity:sparsity for geom step 0
    nrows_g=208 nrows=40 sparsity=2.6994 nnzs=116785, refcount: 7>
  <dData1D:(new from dSpData1D) n=116785, refcount: 1>
refcount: 1>
new_DM -- step:     1
Initializing Density Matrix...
 
Attempting to read DM from file... Failed...
DM filled with atomic data:
<dSpData2D:DM initialized from atoms
  <sparsity:sparsity for geom step 0
    nrows_g=208 nrows=40 sparsity=2.6994 nnzs=116785, refcount: 8>
  <dData2D:DM n=116785 m=1, refcount: 1>
refcount: 1>
 
No. of atoms with KB's overlaping orbs in proc 0. Max # of overlaps:     112     591
New grid distribution:   1
           1       1:   20    1:   10    1:    7
           2       1:   20    1:   10    8:   14
           3       1:   20    1:   10   15:   21
           4       1:   20    1:   10   22:   27
           5       1:   20   11:   20    1:    7
           6       1:   20   11:   20    8:   14
           7       1:   20   11:   20   15:   21
           8       1:   20   11:   20   22:   27

InitMesh: MESH =    40 x    40 x    54 =       86400
InitMesh: (bp) =    20 x    20 x    27 =       10800
InitMesh: Mesh cutoff (required, used) =   200.000   200.741 Ry
ExtMesh (bp) on 0 =    96 x    86 x    75 =      619200
New grid distribution:   2
           1      11:   20   11:   20    1:   14
           2       1:   10    1:   10    1:   14
           3      11:   20   11:   20   15:   27
           4       1:   10    1:   10   15:   27
           5       1:   10   11:   20    1:   14
           6      11:   20    1:   10    1:   14
           7       1:   10   11:   20   15:   27
           8      11:   20    1:   10   15:   27
New grid distribution:   3
           1      11:   20   11:   20    1:   14
           2       1:   10    1:   10    1:   14
           3      11:   20   11:   20   15:   27
           4       1:   10    1:   10   15:   27
           5       1:   10   11:   20    1:   14
           6      11:   20    1:   10    1:   14
           7       1:   10   11:   20   15:   27
           8      11:   20    1:   10   15:   27
Setting up quadratic distribution...
ExtMesh (bp) on 0 =    86 x    86 x    82 =      606472
PhiOnMesh: Number of (b)points on node 0 =                 1400
PhiOnMesh: nlist on node 0 =               302035

stepf: Fermi-Dirac step function

siesta: Program's energy decomposition (eV):
siesta: Ebs     =      -787.399976
siesta: Eions   =      4351.079080
siesta: Ena     =       796.498366
siesta: Ekin    =      2100.039847
siesta: Enl     =      -362.190945
siesta: Eso     =         0.000000
siesta: Eldau   =         0.000000
siesta: DEna    =      -149.711360
siesta: DUscf   =        29.102260
siesta: DUext   =         0.000000
siesta: Exc     =     -1137.715887
siesta: eta*DQ  =         0.000000
siesta: Emadel  =         0.000000
siesta: Emeta   =         0.000000
siesta: Emolmec =         0.000000
siesta: Ekinion =         0.000000
siesta: Eharris =     -3023.944586
siesta: Etot    =     -3075.056799
siesta: FreeEng =     -3075.056799

        iscf     Eharris(eV)        E_KS(eV)     FreeEng(eV)     dDmax    Ef(eV) dHmax(eV)
   scf:    1    -3023.944586    -3075.056799    -3075.056799  1.790749 -7.267370  6.619301
timer: Routine,Calls,Time,% = IterSCF        1       4.682  47.39
   scf:    2    -3092.360299    -3086.093069    -3086.093069  0.076946 -6.189262  1.773594
   scf:    3    -3086.908559    -3086.668046    -3086.668046  0.064905 -5.720873  0.444904
   scf:    4    -3086.787614    -3086.742085    -3086.742085  0.060969 -5.518221  0.046624
   scf:    5    -3086.744121    -3086.743345    -3086.743345  0.001338 -5.514807  0.022894
   scf:    6    -3086.743943    -3086.743687    -3086.743687  0.001321 -5.512250  0.002281
   scf:    7    -3086.743706    -3086.743697    -3086.743697  0.000390 -5.512920  0.001056
   scf:    8    -3086.743699    -3086.743698    -3086.743698  0.000098 -5.513200  0.000619
   scf:    9    -3086.743698    -3086.743698    -3086.743698  0.000096 -5.513358  0.000243
   scf:   10    -3086.743698    -3086.743698    -3086.743698  0.000023 -5.513293  0.000063
   scf:   11    -3086.743698    -3086.743698    -3086.743698  0.000011 -5.513276  0.000002
   scf:   12    -3086.743698    -3086.743698    -3086.743698  0.000000 -5.513276  0.000001

SCF Convergence by DM+H criterion
max |DM_out - DM_in|         :     0.0000003500
max |H_out - H_in|      (eV) :     0.0000008901
SCF cycle converged after 12 iterations

Using DM_out to compute the final energy and forces
No. of atoms with KB's overlaping orbs in proc 0. Max # of overlaps:     112     591

siesta: E_KS(eV) =            -3086.7437

siesta: E_KS - E_eggbox =     -3086.7437

siesta: Atomic forces (eV/Ang):
----------------------------------------
   Tot   -0.000257    0.000060    0.191855
----------------------------------------
   Max    4.663285
   Res    2.684886    sqrt( Sum f_i^2 / 3N )
----------------------------------------
   Max    4.663285    constrained

Stress-tensor-Voigt (kbar):      -14.52       -9.57      245.80        4.29       -0.01        0.01
(Free)E + p*V (eV/cell)    -3093.1042
Target enthalpy (eV/cell)    -3082.4404

siesta: Stress tensor (static) (eV/Ang**3):
        -0.009064    0.002680    0.000004
         0.002680   -0.005972   -0.000005
         0.000004   -0.000005    0.153413

siesta: Pressure (static):        -73.90199022  kBar

siesta: Stress tensor (total) (eV/Ang**3):
        -0.009064    0.002680    0.000004
         0.002680   -0.005972   -0.000005
         0.000004   -0.000005    0.153413

siesta: Pressure (total):        -73.90199022  kBar

cgvc: No target stress found, assuming hydrostatic MD.TargetPressure.

cgvc: Target stress (kBar)
cgvc:       -50.000       0.000       0.000
cgvc:         0.000     -50.000       0.000
cgvc:         0.000       0.000     -50.000

cgvc: WARNING: CG file not found

                     ====================================
                        Begin CG opt. move =      1
                     ====================================
 Kpoints in:          224 . Kpoints trimmed:          224

siesta: k-grid: Number of k-points =   224
siesta: k-grid: Cutoff (effective) =    20.050 Ang
siesta: k-grid: Supercell and displacements
siesta: k-grid:    8   8   0      0.500
siesta: k-grid:    8   0   0      0.500
siesta: k-grid:    0   0   7      0.000

superc: Internal auxiliary supercell:     5 x     5 x     3  =      75
superc: Number of atoms, orbitals, and projectors:   1200  15600  19200

outcell: Unit cell vectors (Ang):
        5.012638   -0.000014    0.000000
       -2.506331    4.341065   -0.000000
        0.000000   -0.000000    6.332824

outcell: Cell vector modules (Ang)   :    5.012638    5.012638    6.332824
outcell: Cell angles (23,13,12) (deg):     90.0000     90.0000    120.0003
outcell: Cell volume (Ang**3)        :    137.8032
<dSpData1D:S at geom step 1
  <sparsity:sparsity for geom step 1
    nrows_g=208 nrows=40 sparsity=2.6994 nnzs=116785, refcount: 7>
  <dData1D:(new from dSpData1D) n=116785, refcount: 1>
refcount: 1>
new_DM -- step:     2
Re-using DM from previous geometries...
Number of DMs in history: 1
 DM extrapolation coefficients: 
1   1.00000
New DM after history re-use:
<dSpData2D:SpM extrapolated using coords
  <sparsity:sparsity for geom step 1
    nrows_g=208 nrows=40 sparsity=2.6994 nnzs=116785, refcount: 8>
  <dData2D:(temp array for extrapolation) n=116785 m=1, refcount: 1>
refcount: 1>
No. of atoms with KB's overlaping orbs in proc 0. Max # of overlaps:     112     591
New grid distribution:   1
           1       1:   20    1:   10    1:    7
           2       1:   20    1:   10    8:   14
           3       1:   20    1:   10   15:   21
           4       1:   20    1:   10   22:   27
           5       1:   20   11:   20    1:    7
           6       1:   20   11:   20    8:   14
           7       1:   20   11:   20   15:   21
           8       1:   20   11:   20   22:   27

InitMesh: MESH =    40 x    40 x    54 =       86400
InitMesh: (bp) =    20 x    20 x    27 =       10800
InitMesh: Mesh cutoff (required, used) =   200.000   200.953 Ry
ExtMesh (bp) on 0 =    96 x    86 x    75 =      619200
New grid distribution:   2
           1      11:   20   11:   20    1:   14
           2       1:   10    1:   10    1:   14
           3      11:   20   11:   20   15:   27
           4       1:   10    1:   10   15:   27
           5       1:   10   11:   20    1:   14
           6      11:   20    1:   10    1:   14
           7       1:   10   11:   20   15:   27
           8      11:   20    1:   10   15:   27
New grid distribution:   3
           1      11:   20   11:   20    1:   14
           2       1:   10    1:   10    1:   14
           3      11:   20   11:   20   15:   27
           4       1:   10    1:   10   15:   27
           5       1:   10   11:   20    1:   14
           6      11:   20    1:   10    1:   14
           7       1:   10   11:   20   15:   27
           8      11:   20    1:   10   15:   27
Setting up quadratic distribution...
ExtMesh (bp) on 0 =    86 x    86 x    82 =      606472
PhiOnMesh: Number of (b)points on node 0 =                 1400
PhiOnMesh: nlist on node 0 =               302210

        iscf     Eharris(eV)        E_KS(eV)     FreeEng(eV)     dDmax    Ef(eV) dHmax(eV)
   scf:    1    -3086.850202    -3086.932485    -3086.932485  0.005287 -5.549945  0.013282
   scf:    2    -3086.932404    -3086.932496    -3086.932496  0.001585 -5.543158  0.012623
   scf:    3    -3086.932573    -3086.932549    -3086.932549  0.000571 -5.546251  0.000635
   scf:    4    -3086.932549    -3086.932549    -3086.932549  0.000109 -5.546040  0.000268
   scf:    5    -3086.932549    -3086.932549    -3086.932549  0.000057 -5.545911  0.000026
   scf:    6    -3086.932549    -3086.932549    -3086.932549  0.000001 -5.545906  0.000015

SCF Convergence by DM+H criterion
max |DM_out - DM_in|         :     0.0000010946
max |H_out - H_in|      (eV) :     0.0000152197
SCF cycle converged after 6 iterations

Using DM_out to compute the final energy and forces
No. of atoms with KB's overlaping orbs in proc 0. Max # of overlaps:     112     591

siesta: E_KS(eV) =            -3086.9325

siesta: Atomic forces (eV/Ang):
----------------------------------------
   Tot   -0.000491    0.000283    0.185605
----------------------------------------
   Max    4.602730
   Res    2.650348    sqrt( Sum f_i^2 / 3N )
----------------------------------------
   Max    4.602730    constrained

Stress-tensor-Voigt (kbar):      -15.31      -10.41      238.56        4.24       -0.00        0.00
(Free)E + p*V (eV/cell)    -3093.0346
Target enthalpy (eV/cell)    -3082.6321

siesta: Stress tensor (static) (eV/Ang**3):
        -0.009557    0.002649    0.000001
         0.002649   -0.006500   -0.000001
         0.000001   -0.000001    0.148899

siesta: Pressure (static):        -70.94614182  kBar

siesta: Stress tensor (total) (eV/Ang**3):
        -0.009557    0.002649    0.000001
         0.002649   -0.006500   -0.000001
         0.000001   -0.000001    0.148899

siesta: Pressure (total):        -70.94614182  kBar

                     ====================================
                        Begin CG opt. move =      2
                     ====================================
 Kpoints in:          224 . Kpoints trimmed:          224

siesta: k-grid: Number of k-points =   224
siesta: k-grid: Cutoff (effective) =    20.048 Ang
siesta: k-grid: Supercell and displacements
siesta: k-grid:    8   8   0      0.500
siesta: k-grid:    8   0   0      0.500
siesta: k-grid:    0   0   7      0.000

superc: Internal auxiliary supercell:     5 x     5 x     3  =      75
superc: Number of atoms, orbitals, and projectors:   1200  15600  19200

outcell: Unit cell vectors (Ang):
        5.012130   -0.000075   -0.000000
       -2.506130    4.340595    0.000000
       -0.000000    0.000000    6.327477

outcell: Cell vector modules (Ang)   :    5.012130    5.012130    6.327477
outcell: Cell angles (23,13,12) (deg):     90.0000     90.0000    120.0017
outcell: Cell volume (Ang**3)        :    137.6570
<dSpData1D:S at geom step 2
  <sparsity:sparsity for geom step 2
    nrows_g=208 nrows=40 sparsity=2.6745 nnzs=115711, refcount: 7>
  <dData1D:(new from dSpData1D) n=115711, refcount: 1>
refcount: 1>
new_DM -- step:     3
Re-using DM from previous geometries...
Number of DMs in history: 1
 DM extrapolation coefficients: 
1   1.00000
New DM after history re-use:
<dSpData2D:SpM extrapolated using coords
  <sparsity:sparsity for geom step 2
    nrows_g=208 nrows=40 sparsity=2.6745 nnzs=115711, refcount: 8>
  <dData2D:(temp array for extrapolation) n=115711 m=1, refcount: 1>
refcount: 1>
No. of atoms with KB's overlaping orbs in proc 0. Max # of overlaps:     112     588
New grid distribution:   1
           1       1:   20    1:   10    1:    7
           2       1:   20    1:   10    8:   14
           3       1:   20    1:   10   15:   21
           4       1:   20    1:   10   22:   27
           5       1:   20   11:   20    1:    7
           6       1:   20   11:   20    8:   14
           7       1:   20   11:   20   15:   21
           8       1:   20   11:   20   22:   27

InitMesh: MESH =    40 x    40 x    54 =       86400
InitMesh: (bp) =    20 x    20 x    27 =       10800
InitMesh: Mesh cutoff (required, used) =   200.000   201.293 Ry
ExtMesh (bp) on 0 =    96 x    86 x    75 =      619200
New grid distribution:   2
           1      11:   20   11:   20    1:   14
           2       1:   10    1:   10    1:   14
           3      11:   20   11:   20   15:   27
           4       1:   10    1:   10   15:   27
           5       1:   10   11:   20    1:   14
           6      11:   20    1:   10    1:   14
           7       1:   10   11:   20   15:   27
           8      11:   20    1:   10   15:   27
New grid distribution:   3
           1      11:   20   11:   20    1:   14
           2       1:   10    1:   10    1:   14
           3      11:   20   11:   20   15:   27
           4       1:   10    1:   10   15:   27
           5       1:   10   11:   20    1:   14
           6      11:   20    1:   10    1:   14
           7       1:   10   11:   20   15:   27
           8      11:   20    1:   10   15:   27
Setting up quadratic distribution...
ExtMesh (bp) on 0 =    86 x    86 x    82 =      606472
PhiOnMesh: Number of (b)points on node 0 =                 1400
PhiOnMesh: nlist on node 0 =               302449

        iscf     Eharris(eV)        E_KS(eV)     FreeEng(eV)     dDmax    Ef(eV) dHmax(eV)
   scf:    1    -3087.099454    -3087.228880    -3087.228880  0.008443 -5.603652  0.020838
   scf:    2    -3087.228699    -3087.228917    -3087.228917  0.002550 -5.592937  0.019474
   scf:    3    -3087.229106    -3087.229045    -3087.229045  0.000915 -5.597765  0.000960
   scf:    4    -3087.229046    -3087.229045    -3087.229045  0.000164 -5.597454  0.000426
   scf:    5    -3087.229045    -3087.229045    -3087.229045  0.000090 -5.597246  0.000041
   scf:    6    -3087.229045    -3087.229045    -3087.229045  0.000002 -5.597237  0.000024

SCF Convergence by DM+H criterion
max |DM_out - DM_in|         :     0.0000018768
max |H_out - H_in|      (eV) :     0.0000241671
SCF cycle converged after 6 iterations

Using DM_out to compute the final energy and forces
No. of atoms with KB's overlaping orbs in proc 0. Max # of overlaps:     112     588

siesta: E_KS(eV) =            -3087.2290

siesta: Atomic forces (eV/Ang):
----------------------------------------
   Tot   -0.000359    0.000245    0.164269
----------------------------------------
   Max    4.507204
   Res    2.595925    sqrt( Sum f_i^2 / 3N )
----------------------------------------
   Max    4.507204    constrained

Stress-tensor-Voigt (kbar):      -16.59      -11.79      227.41        4.17        0.00       -0.00
(Free)E + p*V (eV/cell)    -3092.9291
Target enthalpy (eV/cell)    -3082.9332

siesta: Stress tensor (static) (eV/Ang**3):
        -0.010357    0.002605   -0.000001
         0.002605   -0.007356    0.000000
        -0.000001    0.000000    0.141937

siesta: Pressure (static):        -66.34356054  kBar

siesta: Stress tensor (total) (eV/Ang**3):
        -0.010357    0.002605   -0.000001
         0.002605   -0.007356    0.000000
        -0.000001    0.000000    0.141937

siesta: Pressure (total):        -66.34356054  kBar

                     ====================================
                        Begin CG opt. move =      3
                     ====================================
 Kpoints in:          224 . Kpoints trimmed:          224

siesta: k-grid: Number of k-points =   224
siesta: k-grid: Cutoff (effective) =    20.044 Ang
siesta: k-grid: Supercell and displacements
siesta: k-grid:    8   8   0      0.500
siesta: k-grid:    8   0   0      0.500
siesta: k-grid:    0   0   7      0.000

superc: Internal auxiliary supercell:     5 x     5 x     3  =      75
superc: Number of atoms, orbitals, and projectors:   1200  15600  19200

outcell: Unit cell vectors (Ang):
        5.011318   -0.000173   -0.000000
       -2.505809    4.339843    0.000000
       -0.000000    0.000000    6.318923

outcell: Cell vector modules (Ang)   :    5.011318    5.011319    6.318923
outcell: Cell angles (23,13,12) (deg):     90.0000     90.0000    120.0040
outcell: Cell volume (Ang**3)        :    137.4233
<dSpData1D:S at geom step 3
  <sparsity:sparsity for geom step 3
    nrows_g=208 nrows=40 sparsity=2.6745 nnzs=115711, refcount: 7>
  <dData1D:(new from dSpData1D) n=115711, refcount: 1>
refcount: 1>
new_DM -- step:     4
Re-using DM from previous geometries...
Number of DMs in history: 1
 DM extrapolation coefficients: 
1   1.00000
New DM after history re-use:
<dSpData2D:SpM extrapolated using coords
  <sparsity:sparsity for geom step 3
    nrows_g=208 nrows=40 sparsity=2.6745 nnzs=115711, refcount: 8>
  <dData2D:(temp array for extrapolation) n=115711 m=1, refcount: 1>
refcount: 1>
Note: For starting DM, Qtot, Tr[D*S] =         64.00000000         64.07102577
No. of atoms with KB's overlaping orbs in proc 0. Max # of overlaps:     112     588
New grid distribution:   1
           1       1:   20    1:   10    1:    7
           2       1:   20    1:   10    8:   14
           3       1:   20    1:   10   15:   21
           4       1:   20    1:   10   22:   27
           5       1:   20   11:   20    1:    7
           6       1:   20   11:   20    8:   14
           7       1:   20   11:   20   15:   21
           8       1:   20   11:   20   22:   27

InitMesh: MESH =    40 x    40 x    54 =       86400
InitMesh: (bp) =    20 x    20 x    27 =       10800
InitMesh: Mesh cutoff (required, used) =   200.000   201.838 Ry
ExtMesh (bp) on 0 =    96 x    86 x    75 =      619200
New grid distribution:   2
           1      11:   20   11:   20    1:   14
           2       1:   10    1:   10    1:   14
           3      11:   20   11:   20   15:   27
           4       1:   10    1:   10   15:   27
           5       1:   10   11:   20    1:   14
           6      11:   20    1:   10    1:   14
           7       1:   10   11:   20   15:   27
           8      11:   20    1:   10   15:   27
New grid distribution:   3
           1      11:   20   11:   20    1:   14
           2       1:   10    1:   10    1:   14
           3      11:   20   11:   20   15:   27
           4       1:   10    1:   10   15:   27
           5       1:   10   11:   20    1:   14
           6      11:   20    1:   10    1:   14
           7       1:   10   11:   20   15:   27
           8      11:   20    1:   10   15:   27
Setting up quadratic distribution...
ExtMesh (bp) on 0 =    86 x    86 x    82 =      606472
PhiOnMesh: Number of (b)points on node 0 =                 1400
PhiOnMesh: nlist on node 0 =               302913

        iscf     Eharris(eV)        E_KS(eV)     FreeEng(eV)     dDmax    Ef(eV) dHmax(eV)
   scf:    1    -3087.487845    -3087.688985    -3087.688985  0.013493 -5.691239  0.032332
   scf:    2    -3087.688606    -3087.689107    -3087.689107  0.004116 -5.674434  0.029401
   scf:    3    -3087.689560    -3087.689410    -3087.689410  0.001471 -5.681871  0.001411
   scf:    4    -3087.689412    -3087.689411    -3087.689411  0.000236 -5.681436  0.000673
   scf:    5    -3087.689412    -3087.689412    -3087.689412  0.000145 -5.681095  0.000061
   scf:    6    -3087.689412    -3087.689412    -3087.689412  0.000003 -5.681083  0.000036

SCF Convergence by DM+H criterion
max |DM_out - DM_in|         :     0.0000027285
max |H_out - H_in|      (eV) :     0.0000363283
SCF cycle converged after 6 iterations

Using DM_out to compute the final energy and forces
No. of atoms with KB's overlaping orbs in proc 0. Max # of overlaps:     112     588

siesta: E_KS(eV) =            -3087.6894

siesta: Atomic forces (eV/Ang):
----------------------------------------
   Tot    0.000004    0.000015    0.122799
----------------------------------------
   Max    4.358246
   Res    2.510727    sqrt( Sum f_i^2 / 3N )
----------------------------------------
   Max    4.358246    constrained

Stress-tensor-Voigt (kbar):      -18.82      -14.10      210.15        4.08        0.00        0.00
(Free)E + p*V (eV/cell)    -3092.7564
Target enthalpy (eV/cell)    -3083.4008

siesta: Stress tensor (static) (eV/Ang**3):
        -0.011744    0.002549    0.000001
         0.002549   -0.008803    0.000000
         0.000001    0.000000    0.131161

siesta: Pressure (static):        -59.07526416  kBar

siesta: Stress tensor (total) (eV/Ang**3):
        -0.011744    0.002549    0.000001
         0.002549   -0.008803    0.000000
         0.000001    0.000000    0.131161

siesta: Pressure (total):        -59.07526416  kBar

                     ====================================
                        Begin CG opt. move =      4
                     ====================================
 Kpoints in:          224 . Kpoints trimmed:          224

siesta: k-grid: Number of k-points =   224
siesta: k-grid: Cutoff (effective) =    20.038 Ang
siesta: k-grid: Supercell and displacements
siesta: k-grid:    8   8   0      0.500
siesta: k-grid:    8   0   0      0.500
siesta: k-grid:    0   0   7      0.000

superc: Internal auxiliary supercell:     5 x     5 x     3  =      75
superc: Number of atoms, orbitals, and projectors:   1200  15600  19200

outcell: Unit cell vectors (Ang):
        5.010116   -0.000319   -0.000000
       -2.505334    4.338729    0.000001
       -0.000000    0.000001    6.306250

outcell: Cell vector modules (Ang)   :    5.010116    5.010116    6.306250
outcell: Cell angles (23,13,12) (deg):     90.0000     90.0000    120.0073
outcell: Cell volume (Ang**3)        :    137.0773
<dSpData1D:S at geom step 4
  <sparsity:sparsity for geom step 4
    nrows_g=208 nrows=40 sparsity=2.6745 nnzs=115711, refcount: 7>
  <dData1D:(new from dSpData1D) n=115711, refcount: 1>
refcount: 1>
new_DM -- step:     5
Re-using DM from previous geometries...
Number of DMs in history: 1
 DM extrapolation coefficients: 
1   1.00000
New DM after history re-use:
<dSpData2D:SpM extrapolated using coords
  <sparsity:sparsity for geom step 4
    nrows_g=208 nrows=40 sparsity=2.6745 nnzs=115711, refcount: 8>
  <dData2D:(temp array for extrapolation) n=115711 m=1, refcount: 1>
refcount: 1>
Note: For starting DM, Qtot, Tr[D*S] =         64.00000000         64.10013245
No. of atoms with KB's overlaping orbs in proc 0. Max # of overlaps:     112     588
New grid distribution:   1
           1       1:   20    1:   10    1:    7
           2       1:   20    1:   10    8:   14
           3       1:   20    1:   10   15:   21
           4       1:   20    1:   10   22:   27
           5       1:   20   11:   20    1:    7
           6       1:   20   11:   20    8:   14
           7       1:   20   11:   20   15:   21
           8       1:   20   11:   20   22:   27

InitMesh: MESH =    40 x    40 x    54 =       86400
InitMesh: (bp) =    20 x    20 x    27 =       10800
InitMesh: Mesh cutoff (required, used) =   200.000   202.650 Ry
ExtMesh (bp) on 0 =    96 x    86 x    79 =      652224
New grid distribution:   2
           1      11:   20   11:   20    1:   14
           2       1:   10    1:   10    1:   14
           3      11:   20   11:   20   15:   27
           4       1:   10    1:   10   15:   27
           5       1:   10   11:   20    1:   14
           6      11:   20    1:   10    1:   14
           7       1:   10   11:   20   15:   27
           8      11:   20    1:   10   15:   27
New grid distribution:   3
           1      11:   20   11:   20    1:   14
           2       1:   10    1:   10    1:   14
           3      11:   20   11:   20   15:   27
           4       1:   10    1:   10   15:   27
           5       1:   10   11:   20    1:   14
           6      11:   20    1:   10    1:   14
           7       1:   10   11:   20   15:   27
           8      11:   20    1:   10   15:   27
Setting up quadratic distribution...
ExtMesh (bp) on 0 =    86 x    86 x    86 =      636056
PhiOnMesh: Number of (b)points on node 0 =                 1400
PhiOnMesh: nlist on node 0 =               303683

        iscf     Eharris(eV)        E_KS(eV)     FreeEng(eV)     dDmax    Ef(eV) dHmax(eV)
   scf:    1    -3088.053021    -3088.337982    -3088.337982  0.018875 -5.821956  0.045533
   scf:    2    -3088.337376    -3088.338325    -3088.338325  0.006135 -5.797935  0.039836
   scf:    3    -3088.339241    -3088.338928    -3088.338928  0.002183 -5.808316  0.001912
   scf:    4    -3088.338932    -3088.338931    -3088.338931  0.000300 -5.807791  0.000974
   scf:    5    -3088.338932    -3088.338931    -3088.338931  0.000216 -5.807280  0.000081
   scf:    6    -3088.338931    -3088.338931    -3088.338931  0.000004 -5.807262  0.000048

SCF Convergence by DM+H criterion
max |DM_out - DM_in|         :     0.0000039074
max |H_out - H_in|      (eV) :     0.0000483226
SCF cycle converged after 6 iterations

Using DM_out to compute the final energy and forces
No. of atoms with KB's overlaping orbs in proc 0. Max # of overlaps:     112     588

siesta: E_KS(eV) =            -3088.3389

siesta: Atomic forces (eV/Ang):
----------------------------------------
   Tot    0.000283    0.000032   -0.104838
----------------------------------------
   Max    4.132837
   Res    2.381751    sqrt( Sum f_i^2 / 3N )
----------------------------------------
   Max    4.132837    constrained

Stress-tensor-Voigt (kbar):      -22.98      -18.58      180.24        3.82        0.00       -0.00
(Free)E + p*V (eV/cell)    -3092.2939
Target enthalpy (eV/cell)    -3084.0611

siesta: Stress tensor (static) (eV/Ang**3):
        -0.014342    0.002383   -0.000002
         0.002383   -0.011594    0.000001
        -0.000002    0.000001    0.112493

siesta: Pressure (static):        -46.22701913  kBar

siesta: Stress tensor (total) (eV/Ang**3):
        -0.014342    0.002383   -0.000002
         0.002383   -0.011594    0.000001
        -0.000002    0.000001    0.112493

siesta: Pressure (total):        -46.22701913  kBar

                     ====================================
                        Begin CG opt. move =      5
                     ====================================
 Kpoints in:          224 . Kpoints trimmed:          224

siesta: k-grid: Number of k-points =   224
siesta: k-grid: Cutoff (effective) =    20.032 Ang
siesta: k-grid: Supercell and displacements
siesta: k-grid:    8   8   0      0.500
siesta: k-grid:    8   0   0      0.500
siesta: k-grid:    0   0   7      0.000

superc: Internal auxiliary supercell:     5 x     5 x     3  =      75
superc: Number of atoms, orbitals, and projectors:   1200  15600  19200

outcell: Unit cell vectors (Ang):
        5.008913   -0.000464   -0.000001
       -2.504859    4.337614    0.000001
       -0.000001    0.000001    6.293578

outcell: Cell vector modules (Ang)   :    5.008913    5.008914    6.293578
outcell: Cell angles (23,13,12) (deg):     90.0000     90.0000    120.0106
outcell: Cell volume (Ang**3)        :    136.7316
<dSpData1D:S at geom step 5
  <sparsity:sparsity for geom step 5
    nrows_g=208 nrows=40 sparsity=2.6745 nnzs=115711, refcount: 7>
  <dData1D:(new from dSpData1D) n=115711, refcount: 1>
refcount: 1>
new_DM -- step:     6
Re-using DM from previous geometries...
Number of DMs in history: 1
 DM extrapolation coefficients: 
1   1.00000
New DM after history re-use:
<dSpData2D:SpM extrapolated using coords
  <sparsity:sparsity for geom step 5
    nrows_g=208 nrows=40 sparsity=2.6745 nnzs=115711, refcount: 8>
  <dData2D:(temp array for extrapolation) n=115711 m=1, refcount: 1>
refcount: 1>
Note: For starting DM, Qtot, Tr[D*S] =         64.00000000         64.09580212
No. of atoms with KB's overlaping orbs in proc 0. Max # of overlaps:     112     588
New grid distribution:   1
           1       1:   20    1:   10    1:    7
           2       1:   20    1:   10    8:   14
           3       1:   20    1:   10   15:   21
           4       1:   20    1:   10   22:   27
           5       1:   20   11:   20    1:    7
           6       1:   20   11:   20    8:   14
           7       1:   20   11:   20   15:   21
           8       1:   20   11:   20   22:   27

InitMesh: MESH =    40 x    40 x    54 =       86400
InitMesh: (bp) =    20 x    20 x    27 =       10800
InitMesh: Mesh cutoff (required, used) =   200.000   203.467 Ry
ExtMesh (bp) on 0 =    96 x    86 x    79 =      652224
New grid distribution:   2
           1      11:   20   11:   20    1:   14
           2       1:   10    1:   10    1:   14
           3      11:   20   11:   20   15:   27
           4       1:   10    1:   10   15:   27
           5       1:   10   11:   20    1:   14
           6      11:   20    1:   10    1:   14
           7       1:   10   11:   20   15:   27
           8      11:   20    1:   10   15:   27
New grid distribution:   3
           1      11:   20   11:   20    1:   14
           2       1:   10    1:   10    1:   14
           3      11:   20   11:   20   15:   27
           4       1:   10    1:   10   15:   27
           5       1:   10   11:   20    1:   14
           6      11:   20    1:   10    1:   14
           7       1:   10   11:   20   15:   27
           8      11:   20    1:   10   15:   27
Setting up quadratic distribution...
ExtMesh (bp) on 0 =    86 x    86 x    86 =      636056
PhiOnMesh: Number of (b)points on node 0 =                 1400
PhiOnMesh: nlist on node 0 =               304410

        iscf     Eharris(eV)        E_KS(eV)     FreeEng(eV)     dDmax    Ef(eV) dHmax(eV)
   scf:    1    -3088.677354    -3088.950484    -3088.950484  0.016831 -5.948518  0.043115
   scf:    2    -3088.950079    -3088.950906    -3088.950906  0.006226 -5.925285  0.035998
   scf:    3    -3088.951768    -3088.951464    -3088.951464  0.002211 -5.935066  0.001815
   scf:    4    -3088.951468    -3088.951466    -3088.951466  0.000254 -5.934640  0.000950
   scf:    5    -3088.951467    -3088.951467    -3088.951467  0.000218 -5.934123  0.000074
   scf:    6    -3088.951467    -3088.951467    -3088.951467  0.000004 -5.934107  0.000044

SCF Convergence by DM+H criterion
max |DM_out - DM_in|         :     0.0000037385
max |H_out - H_in|      (eV) :     0.0000436370
SCF cycle converged after 6 iterations

Using DM_out to compute the final energy and forces
No. of atoms with KB's overlaping orbs in proc 0. Max # of overlaps:     112     588

siesta: E_KS(eV) =            -3088.9515

siesta: Atomic forces (eV/Ang):
----------------------------------------
   Tot   -0.000086   -0.000080   -0.143183
----------------------------------------
   Max    3.924877
   Res    2.260354    sqrt( Sum f_i^2 / 3N )
----------------------------------------
   Max    3.924877    constrained

Stress-tensor-Voigt (kbar):      -26.71      -22.37      159.21        3.76        0.00       -0.01
(Free)E + p*V (eV/cell)    -3092.0845
Target enthalpy (eV/cell)    -3084.6845

siesta: Stress tensor (static) (eV/Ang**3):
        -0.016671    0.002345   -0.000005
         0.002345   -0.013960    0.000002
        -0.000005    0.000002    0.099371

siesta: Pressure (static):        -36.71172292  kBar

siesta: Stress tensor (total) (eV/Ang**3):
        -0.016671    0.002345   -0.000005
         0.002345   -0.013960    0.000002
        -0.000005    0.000002    0.099371

siesta: Pressure (total):        -36.71172292  kBar

                     ====================================
                        Begin CG opt. move =      6
                     ====================================
 Kpoints in:          224 . Kpoints trimmed:          224

siesta: k-grid: Number of k-points =   224
siesta: k-grid: Cutoff (effective) =    20.027 Ang
siesta: k-grid: Supercell and displacements
siesta: k-grid:    8   8   0      0.500
siesta: k-grid:    8   0   0      0.500
siesta: k-grid:    0   0   7      0.000

superc: Internal auxiliary supercell:     5 x     5 x     3  =      75
superc: Number of atoms, orbitals, and projectors:   1200  15600  19200

outcell: Unit cell vectors (Ang):
        5.007711   -0.000610   -0.000001
       -2.504384    4.336500    0.000001
       -0.000001    0.000001    6.280906

outcell: Cell vector modules (Ang)   :    5.007711    5.007711    6.280906
outcell: Cell angles (23,13,12) (deg):     90.0000     90.0000    120.0140
outcell: Cell volume (Ang**3)        :    136.3862
<dSpData1D:S at geom step 6
  <sparsity:sparsity for geom step 6
    nrows_g=208 nrows=40 sparsity=2.6848 nnzs=116155, refcount: 7>
  <dData1D:(new from dSpData1D) n=116155, refcount: 1>
refcount: 1>
new_DM -- step:     7
Re-using DM from previous geometries...
Number of DMs in history: 1
 DM extrapolation coefficients: 
1   1.00000
New DM after history re-use:
<dSpData2D:SpM extrapolated using coords
  <sparsity:sparsity for geom step 6
    nrows_g=208 nrows=40 sparsity=2.6848 nnzs=116155, refcount: 8>
  <dData2D:(temp array for extrapolation) n=116155 m=1, refcount: 1>
refcount: 1>
Note: For starting DM, Qtot, Tr[D*S] =         64.00000000         64.09124388
No. of atoms with KB's overlaping orbs in proc 0. Max # of overlaps:     112     589
New grid distribution:   1
           1       1:   20    1:   10    1:    7
           2       1:   20    1:   10    8:   14
           3       1:   20    1:   10   15:   21
           4       1:   20    1:   10   22:   27
           5       1:   20   11:   20    1:    7
           6       1:   20   11:   20    8:   14
           7       1:   20   11:   20   15:   21
           8       1:   20   11:   20   22:   27

InitMesh: MESH =    40 x    40 x    54 =       86400
InitMesh: (bp) =    20 x    20 x    27 =       10800
InitMesh: Mesh cutoff (required, used) =   200.000   204.289 Ry
ExtMesh (bp) on 0 =    96 x    86 x    79 =      652224
New grid distribution:   2
           1      11:   20   11:   20    1:   14
           2       1:   10    1:   10    1:   14
           3      11:   20   11:   20   15:   27
           4       1:   10    1:   10   15:   27
           5       1:   10   11:   20    1:   14
           6      11:   20    1:   10    1:   14
           7       1:   10   11:   20   15:   27
           8      11:   20    1:   10   15:   27
New grid distribution:   3
           1      11:   20   11:   20    1:   14
           2       1:   10    1:   10    1:   14
           3      11:   20   11:   20   15:   27
           4       1:   10    1:   10   15:   27
           5       1:   10   11:   20    1:   14
           6      11:   20    1:   10    1:   14
           7       1:   10   11:   20   15:   27
           8      11:   20    1:   10   15:   27
Setting up quadratic distribution...
ExtMesh (bp) on 0 =    86 x    86 x    86 =      636056
PhiOnMesh: Number of (b)points on node 0 =                 1400
PhiOnMesh: nlist on node 0 =               305185

        iscf     Eharris(eV)        E_KS(eV)     FreeEng(eV)     dDmax    Ef(eV) dHmax(eV)
   scf:    1    -3089.265139    -3089.527167    -3089.527167  0.019426 -6.075458  0.040799
   scf:    2    -3089.526909    -3089.527656    -3089.527656  0.006305 -6.052950  0.032439
   scf:    3    -3089.528490    -3089.528189    -3089.528189  0.002238 -6.062196  0.001733
   scf:    4    -3089.528191    -3089.528190    -3089.528190  0.000218 -6.061834  0.000936
   scf:    5    -3089.528191    -3089.528191    -3089.528191  0.000220 -6.061302  0.000065
   scf:    6    -3089.528191    -3089.528191    -3089.528191  0.000004 -6.061287  0.000038

SCF Convergence by DM+H criterion
max |DM_out - DM_in|         :     0.0000039299
max |H_out - H_in|      (eV) :     0.0000378960
SCF cycle converged after 6 iterations

Using DM_out to compute the final energy and forces
No. of atoms with KB's overlaping orbs in proc 0. Max # of overlaps:     112     589

siesta: E_KS(eV) =            -3089.5282

siesta: Atomic forces (eV/Ang):
----------------------------------------
   Tot    0.000043   -0.000025   -0.212844
----------------------------------------
   Max    3.714309
   Res    2.136317    sqrt( Sum f_i^2 / 3N )
----------------------------------------
   Max    3.714309    constrained

Stress-tensor-Voigt (kbar):      -30.51      -26.43      137.58        3.53        0.00       -0.00
(Free)E + p*V (eV/cell)    -3091.8163
Target enthalpy (eV/cell)    -3085.2720

siesta: Stress tensor (static) (eV/Ang**3):
        -0.019042    0.002205   -0.000000
         0.002205   -0.016497    0.000000
        -0.000000    0.000000    0.085870

siesta: Pressure (static):        -26.87988914  kBar

siesta: Stress tensor (total) (eV/Ang**3):
        -0.019042    0.002205   -0.000000
         0.002205   -0.016497    0.000000
        -0.000000    0.000000    0.085870

siesta: Pressure (total):        -26.87988914  kBar

                     ====================================
                        Begin CG opt. move =      7
                     ====================================
 Kpoints in:          224 . Kpoints trimmed:          224

siesta: k-grid: Number of k-points =   224
siesta: k-grid: Cutoff (effective) =    20.021 Ang
siesta: k-grid: Supercell and displacements
siesta: k-grid:    8   8   0      0.500
siesta: k-grid:    8   0   0      0.500
siesta: k-grid:    0   0   7      0.000

superc: Internal auxiliary supercell:     5 x     5 x     3  =      75
superc: Number of atoms, orbitals, and projectors:   1200  15600  19200

outcell: Unit cell vectors (Ang):
        5.006508   -0.000755   -0.000001
       -2.503908    4.335386    0.000002
       -0.000001    0.000002    6.268233

outcell: Cell vector modules (Ang)   :    5.006508    5.006509    6.268233
outcell: Cell angles (23,13,12) (deg):     90.0000     90.0000    120.0173
outcell: Cell volume (Ang**3)        :    136.0411
<dSpData1D:S at geom step 7
  <sparsity:sparsity for geom step 7
    nrows_g=208 nrows=40 sparsity=2.6849 nnzs=116161, refcount: 7>
  <dData1D:(new from dSpData1D) n=116161, refcount: 1>
refcount: 1>
new_DM -- step:     8
Re-using DM from previous geometries...
Number of DMs in history: 1
 DM extrapolation coefficients: 
1   1.00000
New DM after history re-use:
<dSpData2D:SpM extrapolated using coords
  <sparsity:sparsity for geom step 7
    nrows_g=208 nrows=40 sparsity=2.6849 nnzs=116161, refcount: 8>
  <dData2D:(temp array for extrapolation) n=116161 m=1, refcount: 1>
refcount: 1>
Note: For starting DM, Qtot, Tr[D*S] =         64.00000000         64.08642322
No. of atoms with KB's overlaping orbs in proc 0. Max # of overlaps:     112     589
New grid distribution:   1
           1       1:   20    1:   10    1:    7
           2       1:   20    1:   10    8:   14
           3       1:   20    1:   10   15:   21
           4       1:   20    1:   10   22:   27
           5       1:   20   11:   20    1:    7
           6       1:   20   11:   20    8:   14
           7       1:   20   11:   20   15:   21
           8       1:   20   11:   20   22:   27

InitMesh: MESH =    40 x    40 x    54 =       86400
InitMesh: (bp) =    20 x    20 x    27 =       10800
InitMesh: Mesh cutoff (required, used) =   200.000   205.116 Ry
ExtMesh (bp) on 0 =    96 x    86 x    79 =      652224
New grid distribution:   2
           1      11:   20   11:   20    1:   14
           2       1:   10    1:   10    1:   14
           3      11:   20   11:   20   15:   27
           4       1:   10    1:   10   15:   27
           5       1:   10   11:   20    1:   14
           6      11:   20    1:   10    1:   14
           7       1:   10   11:   20   15:   27
           8      11:   20    1:   10   15:   27
New grid distribution:   3
           1      11:   20   11:   20    1:   14
           2       1:   10    1:   10    1:   14
           3      11:   20   11:   20   15:   27
           4       1:   10    1:   10   15:   27
           5       1:   10   11:   20    1:   14
           6      11:   20    1:   10    1:   14
           7       1:   10   11:   20   15:   27
           8      11:   20    1:   10   15:   27
Setting up quadratic distribution...
ExtMesh (bp) on 0 =    86 x    86 x    86 =      636056
PhiOnMesh: Number of (b)points on node 0 =                 1400
PhiOnMesh: nlist on node 0 =               305995

        iscf     Eharris(eV)        E_KS(eV)     FreeEng(eV)     dDmax    Ef(eV) dHmax(eV)
   scf:    1    -3089.813787    -3090.067116    -3090.067116  0.015486 -6.171008  0.038240
   scf:    2    -3090.066970    -3090.067661    -3090.067661  0.006302 -6.148300  0.028846
   scf:    3    -3090.068481    -3090.068179    -3090.068179  0.002241 -6.157442  0.001639
   scf:    4    -3090.068181    -3090.068180    -3090.068180  0.000189 -6.157132  0.000916
   scf:    5    -3090.068181    -3090.068181    -3090.068181  0.000219 -6.156617  0.000060
   scf:    6    -3090.068181    -3090.068181    -3090.068181  0.000004 -6.156605  0.000035

SCF Convergence by DM+H criterion
max |DM_out - DM_in|         :     0.0000039366
max |H_out - H_in|      (eV) :     0.0000345486
SCF cycle converged after 6 iterations

Using DM_out to compute the final energy and forces
No. of atoms with KB's overlaping orbs in proc 0. Max # of overlaps:     112     589

siesta: E_KS(eV) =            -3090.0682

siesta: Atomic forces (eV/Ang):
----------------------------------------
   Tot   -0.000213    0.000124   -0.248848
----------------------------------------
   Max    3.495689
   Res    2.008959    sqrt( Sum f_i^2 / 3N )
----------------------------------------
   Max    3.495689    constrained

Stress-tensor-Voigt (kbar):      -33.88      -29.89      115.90        3.46        0.00       -0.00
(Free)E + p*V (eV/cell)    -3091.5439
Target enthalpy (eV/cell)    -3085.8227

siesta: Stress tensor (static) (eV/Ang**3):
        -0.021145    0.002159   -0.000001
         0.002159   -0.018653    0.000001
        -0.000001    0.000001    0.072340

siesta: Pressure (static):        -17.37954761  kBar

siesta: Stress tensor (total) (eV/Ang**3):
        -0.021145    0.002159   -0.000001
         0.002159   -0.018653    0.000001
        -0.000001    0.000001    0.072340

siesta: Pressure (total):        -17.37954761  kBar

                     ====================================
                        Begin CG opt. move =      8
                     ====================================
 Kpoints in:          224 . Kpoints trimmed:          224

siesta: k-grid: Number of k-points =   224
siesta: k-grid: Cutoff (effective) =    20.015 Ang
siesta: k-grid: Supercell and displacements
siesta: k-grid:    8   8   0      0.500
siesta: k-grid:    8   0   0      0.500
siesta: k-grid:    0   0   7      0.000

superc: Internal auxiliary supercell:     5 x     5 x     3  =      75
superc: Number of atoms, orbitals, and projectors:   1200  15600  19200

outcell: Unit cell vectors (Ang):
        5.005306   -0.000901   -0.000001
       -2.503433    4.334272    0.000002
       -0.000002    0.000002    6.255561

outcell: Cell vector modules (Ang)   :    5.005306    5.005307    6.255561
outcell: Cell angles (23,13,12) (deg):     90.0000     90.0000    120.0206
outcell: Cell volume (Ang**3)        :    135.6963
<dSpData1D:S at geom step 8
  <sparsity:sparsity for geom step 8
    nrows_g=208 nrows=40 sparsity=2.6851 nnzs=116167, refcount: 7>
  <dData1D:(new from dSpData1D) n=116167, refcount: 1>
refcount: 1>
new_DM -- step:     9
Re-using DM from previous geometries...
Number of DMs in history: 1
 DM extrapolation coefficients: 
1   1.00000
New DM after history re-use:
<dSpData2D:SpM extrapolated using coords
  <sparsity:sparsity for geom step 8
    nrows_g=208 nrows=40 sparsity=2.6851 nnzs=116167, refcount: 8>
  <dData2D:(temp array for extrapolation) n=116167 m=1, refcount: 1>
refcount: 1>
Note: For starting DM, Qtot, Tr[D*S] =         64.00000000         64.08143421
No. of atoms with KB's overlaping orbs in proc 0. Max # of overlaps:     112     589
New grid distribution:   1
           1       1:   20    1:   10    1:    7
           2       1:   20    1:   10    8:   14
           3       1:   20    1:   10   15:   21
           4       1:   20    1:   10   22:   27
           5       1:   20   11:   20    1:    7
           6       1:   20   11:   20    8:   14
           7       1:   20   11:   20   15:   21
           8       1:   20   11:   20   22:   27

InitMesh: MESH =    40 x    40 x    54 =       86400
InitMesh: (bp) =    20 x    20 x    27 =       10800
InitMesh: Mesh cutoff (required, used) =   200.000   205.948 Ry
ExtMesh (bp) on 0 =    96 x    86 x    79 =      652224
New grid distribution:   2
           1      11:   20   11:   20    1:   14
           2       1:   10    1:   10    1:   14
           3      11:   20   11:   20   15:   27
           4       1:   10    1:   10   15:   27
           5       1:   10   11:   20    1:   14
           6      11:   20    1:   10    1:   14
           7       1:   10   11:   20   15:   27
           8      11:   20    1:   10   15:   27
New grid distribution:   3
           1      11:   20   11:   20    1:   14
           2       1:   10    1:   10    1:   14
           3      11:   20   11:   20   15:   27
           4       1:   10    1:   10   15:   27
           5       1:   10   11:   20    1:   14
           6      11:   20    1:   10    1:   14
           7       1:   10   11:   20   15:   27
           8      11:   20    1:   10   15:   27
Setting up quadratic distribution...
ExtMesh (bp) on 0 =    86 x    86 x    86 =      636056
PhiOnMesh: Number of (b)points on node 0 =                 1400
PhiOnMesh: nlist on node 0 =               306678

        iscf     Eharris(eV)        E_KS(eV)     FreeEng(eV)     dDmax    Ef(eV) dHmax(eV)
   scf:    1    -3090.324382    -3090.569976    -3090.569976  0.015722 -6.231557  0.038850
   scf:    2    -3090.569905    -3090.570569    -3090.570569  0.006237 -6.209963  0.026707
   scf:    3    -3090.571391    -3090.571084    -3090.571084  0.002226 -6.218494  0.001545
   scf:    4    -3090.571086    -3090.571086    -3090.571086  0.000168 -6.218205  0.000904
   scf:    5    -3090.571086    -3090.571086    -3090.571086  0.000212 -6.217692  0.000055
   scf:    6    -3090.571086    -3090.571086    -3090.571086  0.000004 -6.217680  0.000032

SCF Convergence by DM+H criterion
max |DM_out - DM_in|         :     0.0000038926
max |H_out - H_in|      (eV) :     0.0000316228
SCF cycle converged after 6 iterations

Using DM_out to compute the final energy and forces
No. of atoms with KB's overlaping orbs in proc 0. Max # of overlaps:     112     589

siesta: E_KS(eV) =            -3090.5711

siesta: Atomic forces (eV/Ang):
----------------------------------------
   Tot    0.002553   -0.001473   -0.248649
----------------------------------------
   Max    3.269385
   Res    1.878579    sqrt( Sum f_i^2 / 3N )
----------------------------------------
   Max    3.269385    constrained

Stress-tensor-Voigt (kbar):      -37.19      -34.06       94.74        2.71       -0.01        0.01
(Free)E + p*V (eV/cell)    -3091.2342
Target enthalpy (eV/cell)    -3086.3364

siesta: Stress tensor (static) (eV/Ang**3):
        -0.023214    0.001694    0.000009
         0.001694   -0.021259   -0.000005
         0.000009   -0.000005    0.059133

siesta: Pressure (static):         -7.82936591  kBar

siesta: Stress tensor (total) (eV/Ang**3):
        -0.023214    0.001694    0.000009
         0.001694   -0.021259   -0.000005
         0.000009   -0.000005    0.059133

siesta: Pressure (total):         -7.82936591  kBar

                     ====================================
                        Begin CG opt. move =      9
                     ====================================
 Kpoints in:          224 . Kpoints trimmed:          224

siesta: k-grid: Number of k-points =   224
siesta: k-grid: Cutoff (effective) =    20.009 Ang
siesta: k-grid: Supercell and displacements
siesta: k-grid:    8   8   0      0.500
siesta: k-grid:    8   0   0      0.500
siesta: k-grid:    0   0   7      0.000

superc: Internal auxiliary supercell:     5 x     5 x     3  =      75
superc: Number of atoms, orbitals, and projectors:   1200  15600  19200

outcell: Unit cell vectors (Ang):
        5.004103   -0.001046   -0.000001
       -2.502958    4.333158    0.000002
       -0.000002    0.000002    6.242889

outcell: Cell vector modules (Ang)   :    5.004103    5.004104    6.242889
outcell: Cell angles (23,13,12) (deg):     89.9999     90.0000    120.0240
outcell: Cell volume (Ang**3)        :    135.3518
<dSpData1D:S at geom step 9
  <sparsity:sparsity for geom step 9
    nrows_g=208 nrows=40 sparsity=2.6851 nnzs=116167, refcount: 7>
  <dData1D:(new from dSpData1D) n=116167, refcount: 1>
refcount: 1>
new_DM -- step:    10
Re-using DM from previous geometries...
Number of DMs in history: 1
 DM extrapolation coefficients: 
1   1.00000
New DM after history re-use:
<dSpData2D:SpM extrapolated using coords
  <sparsity:sparsity for geom step 9
    nrows_g=208 nrows=40 sparsity=2.6851 nnzs=116167, refcount: 8>
  <dData2D:(temp array for extrapolation) n=116167 m=1, refcount: 1>
refcount: 1>
Note: For starting DM, Qtot, Tr[D*S] =         64.00000000         64.07633858
No. of atoms with KB's overlaping orbs in proc 0. Max # of overlaps:     112     589
New grid distribution:   1
           1       1:   20    1:   10    1:    7
           2       1:   20    1:   10    8:   14
           3       1:   20    1:   10   15:   21
           4       1:   20    1:   10   22:   27
           5       1:   20   11:   20    1:    7
           6       1:   20   11:   20    8:   14
           7       1:   20   11:   20   15:   21
           8       1:   20   11:   20   22:   27

InitMesh: MESH =    40 x    40 x    54 =       86400
InitMesh: (bp) =    20 x    20 x    27 =       10800
InitMesh: Mesh cutoff (required, used) =   200.000   206.785 Ry
ExtMesh (bp) on 0 =    96 x    86 x    79 =      652224
New grid distribution:   2
           1      11:   20   11:   20    1:   14
           2       1:   10    1:   10    1:   14
           3      11:   20   11:   20   15:   27
           4       1:   10    1:   10   15:   27
           5       1:   10   11:   20    1:   14
           6      11:   20    1:   10    1:   14
           7       1:   10   11:   20   15:   27
           8      11:   20    1:   10   15:   27
New grid distribution:   3
           1      11:   20   11:   20    1:   14
           2       1:   10    1:   10    1:   14
           3      11:   20   11:   20   15:   27
           4       1:   10    1:   10   15:   27
           5       1:   10   11:   20    1:   14
           6      11:   20    1:   10    1:   14
           7       1:   10   11:   20   15:   27
           8      11:   20    1:   10   15:   27
Setting up quadratic distribution...
ExtMesh (bp) on 0 =    86 x    86 x    86 =      636056
PhiOnMesh: Number of (b)points on node 0 =                 1400
PhiOnMesh: nlist on node 0 =               307396

        iscf     Eharris(eV)        E_KS(eV)     FreeEng(eV)     dDmax    Ef(eV) dHmax(eV)
   scf:    1    -3090.797388    -3091.035295    -3091.035295  0.015917 -6.287315  0.040648
   scf:    2    -3091.035264    -3091.035925    -3091.035925  0.006104 -6.266846  0.028176
   scf:    3    -3091.036765    -3091.036449    -3091.036449  0.002190 -6.274818  0.001456
   scf:    4    -3091.036451    -3091.036450    -3091.036450  0.000162 -6.274521  0.000879
   scf:    5    -3091.036451    -3091.036451    -3091.036451  0.000198 -6.274026  0.000052
   scf:    6    -3091.036451    -3091.036451    -3091.036451  0.000004 -6.274015  0.000028

SCF Convergence by DM+H criterion
max |DM_out - DM_in|         :     0.0000039920
max |H_out - H_in|      (eV) :     0.0000283314
SCF cycle converged after 6 iterations

Using DM_out to compute the final energy and forces
No. of atoms with KB's overlaping orbs in proc 0. Max # of overlaps:     112     589

siesta: E_KS(eV) =            -3091.0365

siesta: Atomic forces (eV/Ang):
----------------------------------------
   Tot    0.001056   -0.000435   -0.196817
----------------------------------------
   Max    3.035950
   Res    1.745652    sqrt( Sum f_i^2 / 3N )
----------------------------------------
   Max    3.035950    constrained

Stress-tensor-Voigt (kbar):      -40.91      -37.52       75.00        2.95        0.01       -0.01
(Free)E + p*V (eV/cell)    -3090.9398
Target enthalpy (eV/cell)    -3086.8125

siesta: Stress tensor (static) (eV/Ang**3):
        -0.025537    0.001840   -0.000009
         0.001840   -0.023417    0.000006
        -0.000009    0.000006    0.046811

siesta: Pressure (static):          1.14431751  kBar

siesta: Stress tensor (total) (eV/Ang**3):
        -0.025537    0.001840   -0.000009
         0.001840   -0.023417    0.000006
        -0.000009    0.000006    0.046811

siesta: Pressure (total):          1.14431751  kBar

                     ====================================
                        Begin CG opt. move =     10
                     ====================================
 Kpoints in:          224 . Kpoints trimmed:          224

siesta: k-grid: Number of k-points =   224
siesta: k-grid: Cutoff (effective) =    20.003 Ang
siesta: k-grid: Supercell and displacements
siesta: k-grid:    8   8   0      0.500
siesta: k-grid:    8   0   0      0.500
siesta: k-grid:    0   0   7      0.000

superc: Internal auxiliary supercell:     5 x     5 x     3  =      75
superc: Number of atoms, orbitals, and projectors:   1200  15600  19200

outcell: Unit cell vectors (Ang):
        5.002901   -0.001192   -0.000002
       -2.502483    4.332044    0.000003
       -0.000002    0.000002    6.230216

outcell: Cell vector modules (Ang)   :    5.002901    5.002902    6.230216
outcell: Cell angles (23,13,12) (deg):     89.9999     90.0000    120.0273
outcell: Cell volume (Ang**3)        :    135.0076
<dSpData1D:S at geom step 10
  <sparsity:sparsity for geom step 10
    nrows_g=208 nrows=40 sparsity=2.6858 nnzs=116197, refcount: 7>
  <dData1D:(new from dSpData1D) n=116197, refcount: 1>
refcount: 1>
new_DM -- step:    11
Re-using DM from previous geometries...
Number of DMs in history: 1
 DM extrapolation coefficients: 
1   1.00000
New DM after history re-use:
<dSpData2D:SpM extrapolated using coords
  <sparsity:sparsity for geom step 10
    nrows_g=208 nrows=40 sparsity=2.6858 nnzs=116197, refcount: 8>
  <dData2D:(temp array for extrapolation) n=116197 m=1, refcount: 1>
refcount: 1>
Note: For starting DM, Qtot, Tr[D*S] =         64.00000000         64.07115236
No. of atoms with KB's overlaping orbs in proc 0. Max # of overlaps:     112     589
New grid distribution:   1
           1       1:   20    1:   10    1:    7
           2       1:   20    1:   10    8:   14
           3       1:   20    1:   10   15:   21
           4       1:   20    1:   10   22:   27
           5       1:   20   11:   20    1:    7
           6       1:   20   11:   20    8:   14
           7       1:   20   11:   20   15:   21
           8       1:   20   11:   20   22:   27

InitMesh: MESH =    40 x    40 x    54 =       86400
InitMesh: (bp) =    20 x    20 x    27 =       10800
InitMesh: Mesh cutoff (required, used) =   200.000   207.627 Ry
ExtMesh (bp) on 0 =    96 x    86 x    79 =      652224
New grid distribution:   2
           1      11:   20   11:   20    1:   14
           2       1:   10    1:   10    1:   14
           3      11:   20   11:   20   15:   27
           4       1:   10    1:   10   15:   27
           5       1:   10   11:   20    1:   14
           6      11:   20    1:   10    1:   14
           7       1:   10   11:   20   15:   27
           8      11:   20    1:   10   15:   27
New grid distribution:   3
           1      11:   20   11:   20    1:   14
           2       1:   10    1:   10    1:   14
           3      11:   20   11:   20   15:   27
           4       1:   10    1:   10   15:   27
           5       1:   10   11:   20    1:   14
           6      11:   20    1:   10    1:   14
           7       1:   10   11:   20   15:   27
           8      11:   20    1:   10   15:   27
Setting up quadratic distribution...
ExtMesh (bp) on 0 =    86 x    86 x    86 =      636056
PhiOnMesh: Number of (b)points on node 0 =                 1400
PhiOnMesh: nlist on node 0 =               308130

        iscf     Eharris(eV)        E_KS(eV)     FreeEng(eV)     dDmax    Ef(eV) dHmax(eV)
   scf:    1    -3091.232948    -3091.463128    -3091.463128  0.018653 -6.338059  0.042403
   scf:    2    -3091.463118    -3091.463794    -3091.463794  0.005923 -6.318726  0.029573
[...]
 214  1 -25.39 -25.29 -23.54 -23.47 -22.94 -22.89 -22.54 -22.51 -16.57 -16.54
        -16.15 -16.12 -15.50 -15.47 -13.45 -13.42 -13.11 -12.94 -12.91 -12.51
        -11.98 -11.95 -10.98 -10.95 -10.53 -10.23 -10.21 -10.04  -9.65  -9.23
         -9.02  -8.69  -3.26  -2.95  -2.61  -2.30  -1.67  -1.36   0.35   1.28
          2.04   2.21   3.10   3.25   3.33   3.41   3.76   3.85   4.22   4.60
          4.98   5.21   5.26   5.47   5.58   5.76   5.81   5.88   8.74   8.89
          8.98   9.04   9.77   9.91  10.34  10.96  11.76  11.96  12.28  12.36
         12.37  12.43  13.66  13.67  13.95  13.95  14.04  14.29  16.72  16.99
         17.13  17.45  17.98  18.71  19.74  20.10  20.61  20.71  21.15  21.25
         21.30  21.55  22.24  22.60  23.02  23.32  26.41  26.44  27.34  27.39
         27.57  28.23  28.27  28.59  29.03  29.58  30.33  30.86  31.43  31.52
         32.22  32.91  33.06  34.40  34.56  35.41  35.77  35.83  37.09  37.22
         38.12  38.38  38.71  39.15  39.58  40.52  42.62  43.39  44.39  44.67
         44.95  46.05  46.50  46.54  46.84  47.89  48.23  49.15  50.73  52.17
         52.77  52.87  53.60  53.83  54.33  54.90  55.27  55.75  55.99  56.91
         57.57  59.13  59.22  61.41  61.95  62.52  64.10  64.64  65.33  66.40
         67.17  67.38  68.51  69.15  69.41  69.89  70.27  70.29  70.43  71.24
         72.08  72.58  72.95  73.64  76.25  76.79  77.79  78.09  78.48  79.02
         80.00  82.45  82.99  84.29  90.60  92.29  93.44  97.15  98.32  99.33
        100.23 102.07 104.27 106.28 107.32 109.42 109.91 111.04 112.68 118.15
        120.53 120.59 121.56 123.18 124.46 125.15 126.95 127.44
 215  1 -25.21 -25.11 -23.86 -23.78 -22.99 -22.94 -22.53 -22.49 -16.34 -16.31
        -15.89 -15.86 -14.90 -14.87 -13.82 -13.79 -13.22 -13.19 -12.88 -12.30
        -11.79 -11.76 -11.55 -11.51 -10.98 -10.50 -10.47 -10.46  -9.73  -9.30
         -9.02  -8.68  -3.10  -2.83  -2.39  -2.11  -1.00  -0.72   0.47   1.25
          2.04   2.28   3.16   3.20   3.58   3.86   4.03   4.22   4.37   4.61
          4.67   5.32   5.40   5.52   5.63   5.68   5.92   5.93   8.49   8.51
          9.20   9.22   9.24   9.31  10.06  10.30  11.09  11.50  11.82  11.93
         11.97  12.00  13.59  13.68  13.98  14.05  14.50  14.71  16.60  16.97
         17.12  17.57  18.42  18.86  19.17  19.21  20.31  20.52  20.91  21.11
         21.56  21.64  21.97  22.20  22.95  23.28  26.76  26.77  27.67  27.82
         27.89  28.53  29.27  29.48  29.50  29.95  30.42  30.63  31.63  31.88
         31.92  32.34  33.49  33.55  34.79  35.19  35.33  36.55  36.62  37.49
         39.15  39.25  39.98  40.03  40.31  41.12  43.44  43.75  44.59  45.49
         46.33  46.48  47.19  47.59  47.67  47.74  49.31  50.16  50.42  50.64
         51.37  51.55  52.05  52.44  53.49  54.68  54.99  55.14  55.35  56.27
         57.67  59.35  59.54  59.78  60.26  62.56  62.57  62.92  63.27  63.35
         66.22  66.70  68.16  68.66  69.65  69.70  70.12  70.23  70.28  71.50
         71.91  73.04  73.31  74.53  76.01  76.69  76.91  78.20  78.72  79.32
         80.15  82.44  82.85  84.33  91.63  92.97  93.45  98.38  99.74 101.17
        102.77 103.51 103.92 106.13 106.20 107.57 108.55 109.48 111.17 116.66
        118.06 118.94 119.30 121.32 121.92 123.83 124.69 126.48
 216  1 -24.88 -24.79 -24.07 -23.99 -23.58 -23.51 -22.21 -22.18 -16.28 -16.25
        -14.90 -14.88 -14.67 -14.65 -14.27 -14.25 -12.80 -12.77 -12.60 -12.43
        -12.19 -11.96 -11.93 -11.75 -11.26 -11.08 -11.07 -10.73 -10.59 -10.09
         -8.46  -8.25  -3.41  -3.23  -1.25  -1.02  -0.44  -0.21   0.58   1.09
          2.50   2.95   2.96   3.27   3.37   3.88   3.97   4.33   4.39   4.53
          4.86   5.08   5.14   5.31   5.58   5.80   6.65   6.77   8.09   8.42
          8.53   8.64   8.83   9.26   9.86  10.05  11.42  11.48  11.71  11.86
         11.93  12.40  13.11  13.34  13.36  13.47  14.15  14.49  15.93  16.34
         16.91  17.40  18.02  18.52  18.88  19.31  20.03  20.26  20.62  20.97
         21.61  21.99  22.40  22.93  23.22  23.72  25.21  27.66  28.01  28.60
         28.61  28.71  28.88  29.67  30.29  30.42  30.63  30.95  31.23  32.21
         32.23  32.28  34.18  34.65  35.50  35.72  36.17  36.20  36.73  37.59
         39.89  40.00  40.82  41.54  42.94  43.11  43.49  44.39  44.92  46.13
         46.25  46.58  47.62  47.93  48.04  48.69  49.25  49.98  49.99  50.33
         50.40  50.93  51.87  52.74  53.12  53.64  55.07  55.93  55.94  56.31
         56.75  57.56  58.06  59.23  59.72  61.59  62.75  63.46  64.29  64.67
         64.89  65.55  67.20  67.61  68.38  69.50  69.60  69.77  70.65  71.03
         71.53  72.10  72.73  74.09  76.00  76.17  77.81  78.61  79.10  79.11
         79.52  81.04  81.46  82.89  93.60  94.69  94.83  98.16  98.37  99.90
        101.00 101.96 102.39 104.43 104.73 105.33 106.01 108.16 108.96 110.46
        112.29 113.05 115.39 115.47 116.92 116.96 128.38 129.31
 217  1 -24.64 -24.55 -24.37 -24.28 -23.61 -23.53 -22.18 -22.16 -16.14 -16.11
        -14.90 -14.88 -14.73 -14.72 -13.64 -13.62 -13.04 -13.00 -12.95 -12.93
        -12.03 -11.76 -11.69 -11.60 -11.51 -11.37 -11.34 -11.11 -10.62 -10.12
         -8.42  -8.22  -3.38  -3.24  -1.14  -0.92   0.09   0.33   0.44   0.78
          2.53   2.67   3.05   3.19   3.42   4.12   4.24   4.28   4.32   4.56
          4.80   4.86   5.08   5.23   5.85   6.07   7.27   7.35   7.72   7.98
          7.98   7.99   8.97   9.18  10.37  10.65  10.86  11.15  11.22  11.43
         11.80  12.27  13.14  13.36  13.36  13.51  14.92  15.34  15.82  15.86
         16.21  16.35  18.14  18.59  19.48  19.88  19.98  20.07  20.23  20.44
         21.51  21.91  22.74  23.06  23.31  23.62  24.79  28.12  28.22  28.33
         28.73  28.79  29.18  30.06  30.16  30.17  31.19  31.26  31.45  32.05
         32.11  32.14  34.71  34.94  35.15  35.89  35.95  36.31  36.53  37.45
         40.41  40.99  41.02  42.13  42.46  43.58  43.98  44.42  45.49  45.75
         46.48  46.84  46.93  47.75  48.26  48.37  48.70  49.29  50.57  50.69
         50.77  51.58  51.96  52.15  52.40  53.22  55.03  55.98  56.34  57.30
         57.64  58.33  58.97  59.69  60.22  60.50  61.46  61.67  62.35  62.45
         65.10  65.45  67.28  67.70  68.76  69.38  69.47  69.86  70.51  70.87
         72.08  72.98  73.35  75.06  75.43  75.69  77.13  78.82  78.89  78.92
         79.36  79.88  81.42  82.15  93.66  94.20  95.47  96.68  98.07 100.54
        102.09 103.10 103.26 104.10 104.16 104.58 106.20 106.20 109.44 109.99
        111.07 112.20 112.37 114.34 114.69 116.18 128.26 129.32
 218  1 -24.67 -24.58 -24.14 -24.05 -23.88 -23.80 -22.10 -22.09 -16.18 -16.14
        -15.02 -15.01 -14.36 -14.35 -14.00 -13.98 -12.88 -12.85 -12.53 -12.51
        -12.11 -12.08 -12.07 -11.57 -11.43 -11.39 -11.35 -11.00 -10.81 -10.48
         -8.26  -8.13  -3.49  -3.38  -0.68  -0.47  -0.26  -0.04   0.50   0.85
          2.76   2.83   3.07   3.42   3.61   3.86   4.07   4.13   4.27   4.56
          4.79   4.85   4.92   5.01   5.92   6.08   6.93   7.08   7.87   7.97
          8.01   8.02   9.31   9.55  10.41  10.68  11.16  11.26  11.47  11.88
         11.92  12.50  12.98  13.10  13.32  13.45  13.95  14.30  15.70  15.78
         16.02  16.29  18.61  19.02  19.06  19.45  20.02  20.19  20.25  20.47
         22.07  22.51  22.54  23.06  23.18  23.75  24.39  27.82  28.47  28.72
         28.83  29.28  29.39  29.79  29.90  30.27  30.64  31.33  31.50  31.96
         32.26  32.43  34.89  34.97  35.74  36.25  36.30  36.71  36.74  37.51
         40.39  40.58  41.32  41.85  42.55  43.95  44.37  44.55  45.17  45.81
         45.82  46.13  46.96  47.36  48.49  48.77  49.57  49.84  50.31  50.87
         51.16  51.68  52.05  52.27  52.62  53.32  55.49  55.76  56.59  57.72
         57.88  58.30  58.65  58.71  59.70  60.84  62.92  63.57  64.57  64.94
         65.03  65.31  65.53  66.07  66.92  67.29  68.12  68.44  70.57  71.92
         72.00  72.62  73.38  73.88  75.34  76.35  77.42  77.84  79.09  79.23
         79.67  80.62  80.65  82.24  94.95  95.57  95.75  97.86  98.07  98.64
         99.77 100.89 100.96 101.64 102.66 103.83 105.29 106.31 109.25 110.12
        110.42 110.77 112.23 114.51 114.58 115.13 129.36 129.81
 219  1 -24.57 -24.57 -24.48 -24.48 -23.32 -23.26 -22.33 -22.30 -16.07 -16.04
        -15.09 -15.09 -14.66 -14.64 -13.33 -13.31 -13.29 -13.29 -13.26 -13.26
        -11.95 -11.95 -11.42 -11.41 -11.32 -11.32 -11.28 -11.28 -10.22  -9.74
         -8.69  -8.41  -3.18  -2.99  -1.62  -1.40   0.33   0.33   0.63   0.63
          2.42   2.42   2.80   2.80   3.75   4.14   4.15   4.44   4.56   4.77
          4.81   4.82   5.31   5.50   5.77   6.00   7.60   7.83   7.85   7.86
          7.87   8.01   8.49   8.75  10.28  10.31  10.57  10.61  11.13  11.52
         11.57  11.73  13.41  13.66  13.77  13.96  15.97  15.98  16.07  16.39
         16.39  16.54  17.64  18.15  19.84  19.85  19.94  20.22  20.36  20.37
         20.93  21.29  22.80  22.81  23.27  23.28  25.57  27.75  27.75  28.39
         28.39  28.97  29.48  30.07  30.29  30.30  30.96  31.14  31.32  31.92
         32.15  32.16  34.15  34.21  35.16  35.49  35.58  35.62  36.15  37.30
         40.55  40.96  41.64  41.66  43.05  43.15  43.17  43.37  46.01  46.54
         46.58  47.00  47.81  47.87  47.88  47.95  48.54  48.59  50.06  50.14
         51.05  51.44  51.93  52.71  52.85  53.15  53.68  55.52  56.88  57.29
         57.53  57.61  58.26  58.32  60.35  60.35  60.98  61.01  62.08  62.09
         65.36  65.79  67.88  68.22  69.50  69.64  70.81  70.83  71.21  72.37
         72.52  72.56  74.61  74.62  75.51  76.74  76.77  78.51  78.68  78.76
         78.76  79.46  81.97  82.01  93.01  93.06  95.58  95.61  98.01 102.64
        103.39 103.47 104.35 105.90 107.47 107.47 108.58 108.62 109.42 109.54
        112.23 112.28 114.87 114.91 114.97 117.92 126.47 128.02
 220  1 -24.88 -24.79 -24.34 -24.25 -22.77 -22.77 -22.72 -22.72 -15.81 -15.81
        -15.79 -15.79 -13.94 -13.93 -13.93 -13.91 -13.90 -13.90 -12.69 -12.58
        -12.26 -11.76 -11.63 -11.39 -11.37 -11.08 -10.87 -10.84  -9.40  -9.40
         -9.00  -9.00  -2.57  -2.57  -2.33  -2.33  -0.08   0.18   0.51   1.02
          2.06   2.36   2.62   2.75   4.00   4.27   4.32   4.33   4.69   4.71
          4.76   5.13   5.46   5.47   5.74   5.74   7.16   7.20   7.88   7.89
          8.44   8.46   9.10   9.14   9.61   9.78  10.26  10.65  11.29  11.30
         11.53  11.53  13.83  13.83  14.28  14.28  15.75  15.99  16.78  16.79
         17.30  17.30  17.58  17.93  19.21  20.12  20.19  20.20  20.51  20.51
         20.52  21.39  22.15  22.42  22.80  22.99  27.15  27.21  28.08  28.08
         28.12  28.18  29.92  29.93  30.44  30.70  30.71  30.92  31.19  31.19
         32.34  32.46  32.72  33.79  34.22  35.03  35.05  35.57  36.77  36.78
         40.67  41.02  41.02  41.41  41.42  42.44  42.90  44.34  44.70  46.78
         47.01  47.22  47.24  47.52  47.57  47.58  49.05  49.32  50.68  50.69
         51.15  51.64  51.65  52.31  53.67  53.87  53.91  54.32  54.34  54.51
         58.55  59.16  59.17  59.40  59.59  59.60  59.75  61.35  61.49  63.53
         66.46  66.48  67.16  67.16  69.71  69.72  71.11  71.14  71.47  72.16
         73.93  74.03  74.73  75.07  75.83  76.12  77.20  77.21  78.24  79.15
         79.17  80.29  82.16  83.34  91.91  92.99  94.10  96.50 100.02 100.07
        105.55 105.63 106.57 106.59 107.85 108.23 108.27 109.15 111.25 114.57
        115.16 115.45 115.61 117.95 121.31 121.32 123.39 123.39
 221  1 -25.06 -24.97 -23.98 -23.90 -23.28 -23.21 -22.36 -22.33 -16.35 -16.32
        -15.41 -15.38 -14.58 -14.55 -14.25 -14.22 -13.05 -13.02 -12.70 -12.21
        -11.91 -11.84 -11.82 -11.79 -11.14 -10.76 -10.74 -10.61 -10.15  -9.68
         -8.72  -8.45  -3.28  -3.05  -1.83  -1.57  -0.70  -0.44   0.55   1.21
          2.24   2.55   3.10   3.21   3.41   3.83   3.93   4.45   4.57   4.63
          4.77   5.25   5.25   5.35   5.55   5.61   6.29   6.37   8.34   8.54
          8.88   9.18   9.32   9.48   9.49   9.59  11.23  11.64  11.66  11.88
         11.89  12.07  13.35  13.54  13.70  13.83  14.37  14.66  16.26  16.68
         17.50  18.00  18.01  18.42  18.67  19.18  20.09  20.32  21.07  21.20
         21.49  21.55  22.08  22.51  23.13  23.56  26.36  27.03  27.30  28.13
         28.27  28.58  29.47  29.55  30.13  30.34  30.40  30.79  31.14  32.05
         32.22  32.80  33.13  34.57  34.58  35.39  35.72  36.27  36.59  37.62
         39.52  39.54  40.44  41.27  41.37  41.77  43.54  44.50  44.68  45.68
         46.72  46.80  46.88  47.72  47.97  48.34  49.63  49.90  49.93  50.76
         51.55  51.65  51.78  52.77  52.89  53.63  54.28  54.72  55.46  56.74
         57.65  57.92  57.99  59.58  59.91  62.38  62.46  63.21  63.66  63.74
         65.29  65.96  68.39  68.57  69.44  69.64  69.67  70.12  70.67  70.88
         72.02  72.23  72.89  74.60  76.27  76.33  77.38  78.75  78.84  79.45
         79.53  81.91  82.03  83.58  92.30  93.64  94.13  98.29  98.69 101.69
        101.87 103.20 103.80 104.15 106.28 107.28 108.12 108.45 110.34 112.84
        115.03 115.94 116.83 118.63 119.24 120.35 126.80 128.16
 222  1 -25.10 -25.00 -23.77 -23.69 -23.53 -23.46 -22.26 -22.24 -16.47 -16.44
        -15.16 -15.13 -14.88 -14.85 -14.31 -14.28 -12.74 -12.60 -12.58 -12.20
        -12.19 -12.17 -11.76 -11.69 -10.84 -10.77 -10.75 -10.51 -10.33 -10.02
         -8.55  -8.32  -3.45  -3.23  -1.44  -1.18  -1.06  -0.81   0.56   1.25
          2.54   2.88   2.95   3.32   3.33   3.54   3.80   4.17   4.61   4.78
          4.86   5.02   5.20   5.44   5.51   5.53   6.05   6.21   8.72   8.73
          9.07   9.14   9.35   9.39   9.47   9.57  11.85  11.87  12.06  12.11
         12.34  12.56  13.15  13.37  13.37  13.42  13.61  13.87  16.14  16.53
         17.89  18.00  18.30  18.36  18.46  18.73  20.11  20.32  21.16  21.51
         21.71  22.00  22.07  22.46  23.28  23.69  26.01  27.24  27.52  27.81
         28.34  28.47  28.81  29.25  30.35  30.36  30.44  30.80  31.11  32.15
         32.18  32.77  33.88  34.41  35.19  35.81  35.86  36.08  36.94  37.80
         39.13  39.16  40.48  40.77  41.45  41.83  43.59  44.15  45.29  45.46
         46.10  46.24  47.24  47.75  47.78  48.47  49.98  50.30  50.59  50.98
         51.08  51.84  52.30  52.56  52.96  54.47  54.49  54.89  56.16  56.99
         57.23  57.52  57.74  58.55  58.66  60.92  64.87  64.96  65.47  65.73
         66.26  67.17  67.33  67.72  68.52  68.72  70.03  70.35  70.60  70.85
         70.91  71.92  72.27  72.72  76.82  77.17  78.06  78.60  79.23  79.49
         79.52  80.83  82.50  83.05  92.99  93.63  95.44  97.19  99.40  99.91
        100.13 101.81 102.43 105.03 105.19 106.17 108.19 108.37 110.09 110.57
        114.51 114.62 117.47 118.19 119.61 120.61 128.41 129.11
 223  1 -24.99 -24.89 -24.17 -24.09 -23.02 -22.96 -22.54 -22.50 -16.12 -16.09
        -15.62 -15.60 -14.26 -14.23 -14.12 -14.10 -13.50 -13.47 -12.65 -12.32
        -12.13 -11.84 -11.57 -11.55 -11.41 -10.87 -10.77 -10.75  -9.78  -9.34
         -9.02  -8.68  -2.98  -2.74  -2.21  -1.96  -0.36  -0.11   0.53   1.13
          2.08   2.37   2.84   2.93   3.89   3.98   4.35   4.40   4.55   4.66
          4.70   5.25   5.36   5.40   5.61   5.70   6.71   6.72   8.01   8.23
          8.63   8.82   9.40   9.47   9.51   9.64  10.59  11.02  11.39  11.59
         11.65  11.69  13.62  13.78  14.06  14.17  15.17  15.41  16.48  16.94
         17.15  17.66  17.90  18.28  18.95  19.70  20.09  20.37  20.63  20.86
         20.93  21.57  22.06  22.38  22.93  23.24  27.07  27.09  27.11  28.12
         28.13  29.31  29.38  29.95  30.15  30.39  30.49  30.78  31.10  31.78
         32.29  32.54  32.83  34.17  34.44  34.68  35.43  36.03  36.52  37.28
         40.09  40.20  40.74  41.22  41.64  41.89  43.30  44.45  44.59  46.50
         46.53  47.11  47.65  47.70  47.74  47.92  48.39  50.13  50.17  50.39
         51.06  51.66  51.74  52.88  52.95  53.72  54.06  54.50  54.80  55.52
         58.34  58.76  58.88  60.19  60.50  60.86  61.04  61.10  61.26  63.36
         65.85  66.43  67.47  68.14  69.39  70.24  70.44  70.58  71.26  71.62
         72.47  73.42  73.89  75.60  75.65  76.48  76.48  78.05  78.86  79.15
         79.40  81.32  82.34  83.71  91.91  93.38  93.75  97.22  99.34 101.95
        103.79 105.15 105.66 106.04 106.74 107.24 107.56 109.64 110.52 114.82
        115.56 116.18 117.24 118.41 119.45 120.96 124.31 126.13
 224  1 -24.74 -24.65 -24.47 -24.38 -23.04 -22.98 -22.54 -22.49 -15.95 -15.94
        -15.46 -15.45 -14.33 -14.31 -13.66 -13.64 -13.60 -13.57 -12.95 -12.91
        -12.16 -11.81 -11.60 -11.32 -11.30 -11.24 -11.05 -11.03  -9.80  -9.36
         -9.03  -8.68  -2.90  -2.68  -2.11  -1.88   0.15   0.43   0.45   0.86
          2.19   2.46   2.51   2.70   4.05   4.06   4.19   4.62   4.65   4.67
          4.80   4.99   5.49   5.64   5.68   5.86   7.58   7.61   7.63   8.07
          8.15   8.48   8.49   8.51   9.85  10.08  10.24  10.58  11.16  11.39
         11.47  11.52  13.68  13.86  14.13  14.25  16.00  16.31  16.41  16.91
         16.92  17.18  17.29  17.71  19.53  19.98  20.17  20.28  20.29  20.47
         20.81  20.91  22.47  22.77  22.77  23.07  26.71  27.37  27.39  28.22
         28.23  29.28  29.73  29.86  30.39  30.59  30.71  30.73  31.08  31.87
         32.27  32.39  33.11  33.80  34.78  34.82  35.44  35.60  36.15  37.06
         40.78  41.14  41.19  41.99  42.31  42.33  42.84  43.82  45.50  46.55
         46.62  47.31  47.47  47.60  47.68  47.90  48.76  49.68  49.71  51.01
         51.04  51.64  51.64  52.62  52.70  53.40  53.72  54.48  55.26  56.09
         57.78  57.99  58.39  58.58  60.02  60.30  60.32  61.15  61.94  63.02
         65.76  66.36  67.15  67.98  69.31  70.33  70.47  71.61  71.74  72.26
         73.76  73.93  74.52  75.14  76.26  76.32  76.71  77.78  77.94  78.85
         79.18  79.41  81.92  82.67  92.29  92.86  94.76  95.94  98.66 101.15
        104.85 105.41 105.71 106.16 108.32 108.72 109.13 109.79 110.91 112.24
        113.08 113.83 115.13 116.25 118.08 120.46 124.10 125.95
siesta: Fermi energy =      -5.614044 eV

siesta: Program's energy decomposition (eV):
siesta: Ebs     =      -974.728609
siesta: Eions   =      4351.079080
siesta: Ena     =       791.078286
siesta: Ekin    =      1986.141509
siesta: Enl     =      -329.365039
siesta: Eso     =         0.000000
siesta: Eldau   =         0.000000
siesta: DEna    =       -83.101426
siesta: DUscf   =         9.214798
siesta: DUext   =         0.000000
siesta: Exc     =     -1117.062470
siesta: eta*DQ  =         0.000000
siesta: Emadel  =         0.000000
siesta: Emeta   =         0.000000
siesta: Emolmec =         0.000000
siesta: Ekinion =         0.000000
siesta: Eharris =     -3094.173422
siesta: Etot    =     -3094.173422
siesta: FreeEng =     -3094.173422

siesta: Final energy (eV):
siesta:  Band Struct. =    -974.728609
siesta:       Kinetic =    1986.141509
siesta:       Hartree =     785.802654
siesta:       Eldau   =       0.000000
siesta:       Eso     =       0.000000
siesta:    Ext. field =       0.000000
siesta:   Exch.-corr. =   -1117.062470
siesta:  Ion-electron =   -3465.836061
siesta:       Ion-ion =   -1283.219054
siesta:       Ekinion =       0.000000
siesta:         Total =   -3094.173422
siesta:         Fermi =      -5.614044

siesta: Stress tensor (static) (eV/Ang**3):
siesta:    -0.031360    0.000305   -0.000012
siesta:     0.000305   -0.030983    0.000007
siesta:    -0.000012    0.000007   -0.031131

siesta: Constrained stress tensor (static) (eV/Ang**3):
siesta:    -0.031360    0.000305   -0.000012
siesta:     0.000305   -0.030983    0.000007
siesta:    -0.000012    0.000007   -0.031131

siesta: Cell volume =        134.979138 Ang**3

siesta: Pressure (static):
siesta:                Solid            Molecule  Units
siesta:           0.00033935          0.00034045  Ry/Bohr**3
siesta:           0.03115792          0.03125929  eV/Ang**3
siesta:          49.92102650         50.08344398  kBar
(Free)E+ p_basis*V_orbitals  =       -3083.538476
(Free)Eharris+ p_basis*V_orbitals  =       -3083.538476
>> End of run:  24-NOV-2020  13:13:36
Job completed
