
     Program PWSCF v.6.3 starts on  2Dec2020 at  0:47:20 

     This program is part of the open-source Quantum ESPRESSO suite
     for quantum simulation of materials; please cite
         "P. Giannozzi et al., J. Phys.:Condens. Matter 21 395502 (2009);
         "P. Giannozzi et al., J. Phys.:Condens. Matter 29 465901 (2017);
          URL http://www.quantum-espresso.org", 
     in publications or presentations arising from this work. More details at
     http://www.quantum-espresso.org/quote

     Parallel version (MPI), running on    12 processors

     MPI processes distributed on     3 nodes
     R & G space division:  proc/nbgrp/npool/nimage =      12
     Waiting for input...
     Reading input from standard input
     Message from routine read_cards :
     DEPRECATED: no units specified in CELL_PARAMETERS card

     Current dimensions of program PWSCF are:
     Max number of different atomic species (ntypx) = 10
     Max number of k-points (npk) =  40000
     Max angular momentum in pseudopotentials (lmaxx) =  3

     IMPORTANT: XC functional enforced from input :
     Exchange-correlation      = PBE ( 1  4  3  4 0 0)
     Any further DFT definition will be discarded
     Please, verify this is what you really want

               file N.pbe-n-kjpaw_psl.1.0.0.UPF: wavefunction(s)  2S renormalized

     Subspace diagonalization in iterative solution of the eigenvalue problem:
     one sub-group per band group will be used
     scalapack distributed-memory algorithm (size of sub-group:  2*  2 procs)

     Found symmetry operation: I + (  0.5000  0.0000  0.0000)
     This is a supercell, fractional translations are disabled
 
     Parallelization info
     --------------------
     sticks:   dense  smooth     PW     G-vecs:    dense   smooth      PW
     Min         211     211     58                 7155     7155    1032
     Max         213     213     59                 7158     7158    1034
     Sum        2539    2539    703                85869    85869   12393
 


     bravais-lattice index     =            0
     lattice parameter (alat)  =       9.6117  a.u.
     unit-cell volume          =     635.1459 (a.u.)^3
     number of atoms/cell      =           16
     number of atomic types    =            2
     number of electrons       =        64.00
     number of Kohn-Sham states=          120
     kinetic-energy cutoff     =     100.0000  Ry
     charge density cutoff     =     400.0000  Ry
     convergence threshold     =      1.0E-07
     mixing beta               =       0.1000
     number of iterations used =            8  plain     mixing
     Exchange-correlation      = PBE ( 1  4  3  4 0 0)
     nstep                     =           50


     celldm(1)=   9.611714  celldm(2)=   0.000000  celldm(3)=   0.000000
     celldm(4)=   0.000000  celldm(5)=   0.000000  celldm(6)=   0.000000

     crystal axes: (cart. coord. in units of alat)
               a(1) = (   1.000000   0.000000   0.000000 )  
               a(2) = (  -0.500000   0.866025   0.000000 )  
               a(3) = (   0.000000   0.000000   0.825925 )  

     reciprocal axes: (cart. coord. in units 2 pi/alat)
               b(1) = (  1.000000  0.577350  0.000000 )  
               b(2) = (  0.000000  1.154701  0.000000 )  
               b(3) = (  0.000000  0.000000  1.210764 )  


     PseudoPot. # 1 for B  read from file:
     /home/hanghu/Simulaiton/QE/pseudo/B.pbe-n-kjpaw_psl.1.0.0.UPF
     MD5 check sum: 8c825a5969375aca5c2c6ad5945b3059
     Pseudo is Projector augmented-wave + core cor, Zval =  3.0
     Generated using "atomic" code by A. Dal Corso v.6.3
     Shape of augmentation charge: PSQ
     Using radial grid of 1059 points,  4 beta functions with: 
                l(1) =   0
                l(2) =   0
                l(3) =   1
                l(4) =   1
     Q(r) pseudized with 0 coefficients 


     PseudoPot. # 2 for N  read from file:
     /home/hanghu/Simulaiton/QE/pseudo/N.pbe-n-kjpaw_psl.1.0.0.UPF
     MD5 check sum: 14c48229446f9f2d411169a3abcbc3fa
     Pseudo is Projector augmented-wave + core cor, Zval =  5.0
     Generated using "atomic" code by A. Dal Corso v.6.3
     Shape of augmentation charge: PSQ
     Using radial grid of 1085 points,  4 beta functions with: 
                l(1) =   0
                l(2) =   0
                l(3) =   1
                l(4) =   1
     Q(r) pseudized with 0 coefficients 


     atomic species   valence    mass     pseudopotential
        B              3.00    10.81000     B ( 1.00)
        N              5.00    14.00700     N ( 1.00)

      2 Sym. Ops. (no inversion) found



   Cartesian axes

     site n.     atom                  positions (alat units)
         1           B   tau(   1) = (   0.0000050   0.2886722   0.1494263  )
         2           N   tau(   2) = (   0.0000050   0.2886722   0.6663724  )
         3           B   tau(   3) = (   0.2499950   0.1443405   0.5623885  )
         4           N   tau(   4) = (   0.2499950   0.1443405   0.2534102  )
         5           B   tau(   5) = (   0.5000050   0.2886722   0.1494263  )
         6           N   tau(   6) = (   0.5000050   0.2886722   0.6663724  )
         7           B   tau(   7) = (   0.7499950   0.1443405   0.5623885  )
         8           N   tau(   8) = (   0.7499950   0.1443405   0.2534102  )
         9           B   tau(   9) = (  -0.2499950   0.7216849   0.1494263  )
        10           N   tau(  10) = (  -0.2499950   0.7216849   0.6663724  )
        11           B   tau(  11) = (  -0.0000050   0.5773532   0.5623885  )
        12           N   tau(  12) = (  -0.0000050   0.5773532   0.2534102  )
        13           B   tau(  13) = (   0.2500050   0.7216849   0.1494263  )
        14           N   tau(  14) = (   0.2500050   0.7216849   0.6663724  )
        15           B   tau(  15) = (   0.4999950   0.5773532   0.5623885  )
        16           N   tau(  16) = (   0.4999950   0.5773532   0.2534102  )

     number of k points=    34
                       cart. coord. in units 2pi/alat
        k(    1) = (   0.0000000   0.0000000   0.0000000), wk =   0.0185185
        k(    2) = (   0.0000000   0.0000000   0.4035881), wk =   0.0370370
        k(    3) = (   0.0000000   0.1924501   0.0000000), wk =   0.0740741
        k(    4) = (   0.0000000   0.1924501   0.4035881), wk =   0.0740741
        k(    5) = (   0.0000000   0.3849002   0.0000000), wk =   0.0740741
        k(    6) = (   0.0000000   0.3849002   0.4035881), wk =   0.0740741
        k(    7) = (   0.0000000  -0.5773503   0.0000000), wk =   0.0370370
        k(    8) = (   0.0000000  -0.5773503   0.4035881), wk =   0.0740741
        k(    9) = (   0.1666667   0.2886751   0.0000000), wk =   0.0370370
        k(   10) = (   0.1666667   0.2886751   0.4035881), wk =   0.0740741
        k(   11) = (   0.1666667   0.4811252   0.0000000), wk =   0.0740741
        k(   12) = (   0.1666667   0.4811252   0.4035881), wk =   0.0740741
        k(   13) = (   0.3333333   0.5773503   0.0000000), wk =   0.0370370
        k(   14) = (   0.3333333   0.5773503   0.4035881), wk =   0.0740741
        k(   15) = (  -0.1666667   0.0962250   0.0000000), wk =   0.0370370
        k(   16) = (   0.0000000   0.1924501  -0.4035881), wk =   0.0740741
        k(   17) = (  -0.1666667   0.0962250   0.4035881), wk =   0.0370370
        k(   18) = (   0.1666667  -0.0962250   0.4035881), wk =   0.0370370
        k(   19) = (  -0.3333333   0.1924501   0.0000000), wk =   0.0370370
        k(   20) = (   0.0000000   0.3849002  -0.4035881), wk =   0.0740741
        k(   21) = (  -0.3333333   0.1924501   0.4035881), wk =   0.0370370
        k(   22) = (   0.3333333  -0.1924501   0.4035881), wk =   0.0370370
        k(   23) = (   0.5000000  -0.2886751   0.0000000), wk =   0.0185185
        k(   24) = (   0.5000000  -0.2886751   0.4035881), wk =   0.0370370
        k(   25) = (  -0.1666667   0.2886751   0.0000000), wk =   0.0740741
        k(   26) = (  -0.1666667   0.2886751  -0.4035881), wk =   0.0740741
        k(   27) = (   0.1666667  -0.2886751  -0.4035881), wk =   0.0740741
        k(   28) = (  -0.1666667   0.4811252   0.0000000), wk =   0.0740741
        k(   29) = (  -0.3333333   0.3849002   0.0000000), wk =   0.0740741
        k(   30) = (  -0.1666667   0.4811252  -0.4035881), wk =   0.0740741
        k(   31) = (   0.1666667  -0.4811252  -0.4035881), wk =   0.0740741
        k(   32) = (  -0.3333333   0.3849002   0.4035881), wk =   0.0740741
        k(   33) = (   0.3333333  -0.3849002   0.4035881), wk =   0.0740741
        k(   34) = (  -0.3333333  -0.3849002  -0.4035881), wk =   0.0740741

     Dense  grid:    85869 G-vectors     FFT dimensions: (  64,  64,  54)

     Estimated max dynamical RAM per process >      88.87 MB

     Estimated total dynamical RAM >       1.04 GB

     Check: negative/imaginary core charge=   -0.000003    0.000000

     Initial potential from superposition of free atoms

     starting charge   63.99768, renormalised to   64.00000
     Starting wfcs are   64 randomized atomic wfcs +   56 random wfcs
     Checking if some PAW data can be deallocated... 

     total cpu time spent up to now is        9.1 secs

     Self-consistent Calculation

     iteration #  1     ecut=   100.00 Ry     beta= 0.10
     Davidson diagonalization with overlap
     ethr =  1.00E-02,  avg # of iterations =  5.3

     total cpu time spent up to now is       66.1 secs

     total energy              =    -319.13451007 Ry
     Harris-Foulkes estimate   =    -319.36268192 Ry
     estimated scf accuracy    <       1.76839344 Ry

     iteration #  2     ecut=   100.00 Ry     beta= 0.10
     Davidson diagonalization with overlap
     ethr =  2.76E-03,  avg # of iterations =  1.0

     total cpu time spent up to now is       81.3 secs

     total energy              =    -318.67269290 Ry
     Harris-Foulkes estimate   =    -319.15038548 Ry
     estimated scf accuracy    <       1.11753924 Ry

     iteration #  3     ecut=   100.00 Ry     beta= 0.10
     Davidson diagonalization with overlap
     ethr =  1.75E-03,  avg # of iterations =  1.0

     total cpu time spent up to now is       96.5 secs

     total energy              =    -318.80632786 Ry
     Harris-Foulkes estimate   =    -318.83652412 Ry
     estimated scf accuracy    <       0.12583722 Ry

     iteration #  4     ecut=   100.00 Ry     beta= 0.10
     Davidson diagonalization with overlap
     ethr =  1.97E-04,  avg # of iterations =  1.1

     total cpu time spent up to now is      112.4 secs

     total energy              =    -318.81482288 Ry
     Harris-Foulkes estimate   =    -318.81510079 Ry
     estimated scf accuracy    <       0.00197637 Ry

     iteration #  5     ecut=   100.00 Ry     beta= 0.10
     Davidson diagonalization with overlap
     ethr =  3.09E-06,  avg # of iterations =  5.7

     total cpu time spent up to now is      137.9 secs

     total energy              =    -318.81446135 Ry
     Harris-Foulkes estimate   =    -318.81484586 Ry
     estimated scf accuracy    <       0.00155513 Ry

     iteration #  6     ecut=   100.00 Ry     beta= 0.10
     Davidson diagonalization with overlap
     ethr =  2.43E-06,  avg # of iterations =  1.0

     total cpu time spent up to now is      153.1 secs

     total energy              =    -318.81447722 Ry
     Harris-Foulkes estimate   =    -318.81454656 Ry
     estimated scf accuracy    <       0.00019057 Ry

     iteration #  7     ecut=   100.00 Ry     beta= 0.10
     Davidson diagonalization with overlap
     ethr =  2.98E-07,  avg # of iterations =  1.0

     total cpu time spent up to now is      168.4 secs

     total energy              =    -318.81449538 Ry
     Harris-Foulkes estimate   =    -318.81449600 Ry
     estimated scf accuracy    <       0.00000734 Ry

     iteration #  8     ecut=   100.00 Ry     beta= 0.10
     Davidson diagonalization with overlap
     ethr =  1.15E-08,  avg # of iterations =  1.0

     total cpu time spent up to now is      183.4 secs

     total energy              =    -318.81449690 Ry
     Harris-Foulkes estimate   =    -318.81449628 Ry
     estimated scf accuracy    <       0.00000075 Ry

     iteration #  9     ecut=   100.00 Ry     beta= 0.10
     Davidson diagonalization with overlap
     ethr =  1.18E-09,  avg # of iterations =  1.1

     total cpu time spent up to now is      198.6 secs

     total energy              =    -318.81449682 Ry
     Harris-Foulkes estimate   =    -318.81449713 Ry
     estimated scf accuracy    <       0.00000192 Ry

     iteration # 10     ecut=   100.00 Ry     beta= 0.10
     Davidson diagonalization with overlap
     ethr =  1.18E-09,  avg # of iterations =  2.0

     total cpu time spent up to now is      215.6 secs

     End of self-consistent calculation

          k = 0.0000 0.0000 0.0000 ( 10789 PWs)   bands (ev):

    -9.0848  -4.9723  -4.9723  -4.9721  -4.8958  -3.6838  -3.6834  -3.6834
     0.4076   1.8573   1.8573   1.8575   3.5650   3.5655   3.5655   4.4280
     4.4280   4.4283   6.3632   6.3632   6.3635   6.9275   6.9281   6.9282
     9.2400   9.2410   9.2742   9.2742   9.2746  11.0984  11.3950  11.3958
    18.1448  18.1448  18.1449  19.4021  19.4021  19.4029  19.7928  19.7936
    20.1053  20.9745  22.0252  22.0254  22.0254  22.2102  22.9446  22.9446
    22.9449  23.3592  23.3608  24.4326  24.4326  24.4331  26.0294  26.0300
    26.0300  27.6775  27.9255  27.9255  27.9256  29.2600  29.2606  29.2606
    31.3302  31.3302  31.3307  33.0863  33.0871  33.1549  33.4199  33.4210
    33.4210  35.5660  35.5660  35.5660  35.6838  36.2869  36.2870  36.2874
    37.2834  37.8811  37.8818  38.2287  38.2292  38.2292  39.8844  39.9886
    39.9899  39.9899  43.9562  43.9562  43.9568  46.9127  46.9142  47.5591
    47.5591  47.5597  49.1798  49.2495  49.2496  49.2503  49.4260  49.4265
    49.4265  50.6266  50.6266  50.6268  52.4613  52.4613  52.4614  52.7666
    52.7673  53.6060  53.6064  54.9918  54.9926  54.9926  55.0375  56.2992

          k = 0.0000 0.0000 0.4036 ( 10735 PWs)   bands (ev):

    -8.4219  -6.5738  -4.5917  -4.5917  -4.5916  -3.8942  -3.8941  -3.8941
     1.1214   1.1214   1.1214   2.0335   2.0339   2.0339   3.2467   6.5857
     6.5857   6.5859   6.9413   6.9413   6.9416   8.0966   8.0969   8.0969
     8.1224   8.3537   8.3537   8.3541   9.6982   9.6991  10.7592  10.7600
    17.9662  17.9662  17.9665  18.3042  18.3042  18.3043  20.5558  20.5568
    20.8351  20.9576  22.0479  22.0480  22.0483  22.2769  22.2784  22.3236
    22.3239  22.3239  23.3415  23.9216  23.9218  23.9218  26.1310  26.3556
    26.3556  26.3560  27.4905  27.4909  27.4909  28.7920  28.7920  28.7924
    32.5081  32.5081  32.5084  33.5532  33.5536  33.5536  34.3102  35.1309
    35.1317  35.3603  37.3461  37.3464  37.3464  37.4644  37.4644  37.4645
    38.6594  39.1818  39.1819  39.2356  39.2360  39.2360  40.4213  41.2883
    41.2890  41.2890  42.1584  42.1584  42.1585  42.8467  42.8469  43.1143
    43.1143  43.1144  47.1720  47.1722  47.1722  47.7527  47.7536  48.8184
    48.8184  48.8185  50.1274  51.9081  51.9090  51.9090  52.3814  52.9762
    52.9762  52.9766  57.1341  57.1341  57.1341  57.4771  57.4771  57.4772

          k = 0.0000 0.1925 0.0000 ( 10729 PWs)   bands (ev):

    -8.9332  -5.6827  -5.1090  -5.1088  -4.7795  -3.5160  -3.5158  -3.3982
     0.5578   1.9674   1.9675   2.0604   3.6501   3.7785   3.7789   4.3813
     4.3815   4.4223   5.9317   5.9320   6.5039   7.0897   7.0902   7.5797
     8.5467   8.8660   8.8664   8.9559   9.3946  10.8156  10.9524  11.2370
    18.2045  18.7847  18.7854  19.0849  19.0849  19.5540  19.6567  20.0956
    20.3572  21.4609  22.0098  22.1622  22.1623  22.7015  23.0526  23.4432
    23.7436  23.7438  23.8016  23.8638  24.5108  24.5113  26.1851  26.1855
    26.5751  27.4504  27.6279  27.7237  27.7238  28.8888  28.9890  28.9896
    30.5125  30.6844  30.8651  30.8655  32.7177  32.9938  32.9948  33.1220
    34.1706  35.2351  35.2353  35.6514  35.8486  35.9888  35.9889  36.7999
    36.8532  37.6524  38.2342  38.2345  38.9172  39.8930  40.0382  40.1058
    40.1994  40.2003  44.9425  44.9428  45.2452  46.0486  46.0488  46.7877
    46.9015  47.8482  48.5293  48.5303  48.8673  49.1361  49.5025  49.8687
    50.6323  50.6324  51.6176  51.9757  51.9761  52.2752  53.0129  53.5220
    53.5220  53.6342  53.7722  53.7723  54.4151  54.4800  55.0307  55.0314

          k = 0.0000 0.1925 0.4036 ( 10732 PWs)   bands (ev):

    -8.2734  -6.4370  -5.1870  -4.6917  -4.6917  -4.0337  -3.8498  -3.8497
     1.3297   1.3297   1.5603   2.3215   2.3218   2.7638   3.3493   6.0994
     6.0997   6.2390   6.9029   6.9031   7.0788   7.6901   7.6902   8.0812
     8.3130   8.3739   8.3740   8.4818   9.0400   9.4342  10.2045  10.5542
    17.9626  18.3033  18.3037  18.6314  19.0258  19.0258  20.1767  20.9252
    21.0618  21.4422  21.8276  22.1129  22.1129  22.2084  22.6694  22.6695
    22.7126  22.9085  23.4842  23.4843  23.7413  23.8373  26.1902  26.2982
    26.7189  26.7193  27.0852  27.0855  27.2277  28.5242  28.7026  28.7029
    31.7849  32.1482  32.1483  32.7891  33.2155  33.2159  33.4815  34.5994
    34.7959  36.3189  36.7140  36.7141  36.8520  37.2752  37.2754  37.9739
    37.9907  39.0420  39.0678  39.0680  39.4599  39.4628  40.3560  41.5177
    41.5655  41.5657  41.5900  41.9911  41.9912  43.1872  43.2893  43.2895
    43.6270  44.4314  47.9882  48.3024  48.4509  48.5949  48.5952  49.6891
    49.6893  49.8039  50.4005  51.8775  52.0227  52.0233  52.8106  53.2548
    53.2922  53.2925  55.1763  55.1764  55.7141  56.1225  57.3298  57.5797

          k = 0.0000 0.3849 0.0000 ( 10722 PWs)   bands (ev):

    -8.4832  -6.7804  -5.3165  -5.3165  -4.4470  -3.4907  -3.2534  -3.2533
     1.0025   2.4076   2.4077   2.6455   3.1452   3.9513   3.9514   4.2557
     4.2558   5.3721   5.3721   5.8512   6.8772   6.9124   7.3987   7.3990
     7.9403   7.9406   8.2885   8.7123   9.3996   9.7382  10.4946  10.8038
    18.0641  18.0644  18.3988  19.1422  20.3046  20.7412  20.8122  20.8780
    20.8780  21.8931  22.3344  23.0005  23.0220  23.0223  23.2588  23.3990
    24.3246  24.3247  24.3988  24.9489  24.9862  24.9866  26.3824  26.3827
    26.7443  26.7967  27.2924  27.3397  27.3400  27.8613  27.9840  27.9847
    28.9535  28.9571  30.1873  30.1876  31.8330  31.8336  32.4006  32.5455
    32.9935  34.5497  34.7611  34.7612  35.5830  35.5832  36.4090  36.6692
    38.0487  38.2315  38.2316  39.2857  40.3046  40.3110  41.3108  41.4358
    41.4363  41.9327  44.2207  44.2208  45.9524  45.9528  46.5928  46.6345
    47.5262  47.8271  48.1397  48.2508  48.2513  48.3934  49.5102  49.5421
    50.1149  51.1448  51.1449  51.6661  51.6664  51.7342  51.8451  52.6178
    53.0440  53.7386  53.7393  53.9697  53.9701  54.0473  55.1327  56.2678

          k = 0.0000 0.3849 0.4036 ( 10722 PWs)   bands (ev):

    -7.8336  -6.1944  -6.0366  -4.8511  -4.8510  -4.6552  -3.8027  -3.8026
     1.9408   1.9409   2.7969   2.9558   2.9561   3.6154   4.3072   5.1415
     5.1417   5.7206   6.4484   6.4486   7.0262   7.0263   7.3951   7.4770
     7.7564   8.4858   8.4859   8.5924   8.8040   8.8500   9.1477  10.0329
    18.1973  19.0660  19.0663  19.2994  19.4340  20.4020  20.4021  20.8082
    21.8306  21.9149  21.9781  21.9782  22.1367  22.9044  23.1095  23.1096
    23.5126  23.6792  23.8252  23.9238  23.9239  24.6520  26.0116  26.0116
    26.0431  26.2833  26.4358  27.1032  27.1032  27.7599  28.0879  28.0881
    30.6178  31.0989  31.4442  31.4444  32.4295  32.4297  33.1741  33.6048
    34.4157  35.9005  35.9005  36.0102  36.5576  36.8425  36.8427  36.8534
    38.3628  38.5393  38.8610  38.8610  39.6229  40.4601  40.6516  41.2585
    41.2586  41.9252  42.2129  42.8538  42.8541  44.2302  44.2305  44.4626
    44.7205  46.7891  48.9573  49.6703  50.0145  50.1526  50.1530  50.5683
    51.1353  51.3096  51.3098  51.4865  52.0187  52.0190  52.6549  52.7553
    52.7555  53.3196  53.8421  54.7874  55.3387  55.4614  55.4614  56.2179

          k = 0.0000-0.5774 0.0000 ( 10722 PWs)   bands (ev):

    -7.7518  -7.7518  -5.4015  -5.4015  -3.9609  -3.9609  -3.1448  -3.1448
     1.7206   1.7206   3.1377   3.1377   3.3628   3.3628   4.0345   4.0345
     4.8996   4.8996   5.6533   5.6533   7.2399   7.2399   7.5413   7.5413
     7.6008   7.6008   7.6257   7.6257   9.7381   9.7381  10.2464  10.2464
    17.6885  17.6885  18.7271  18.7271  20.8671  20.8671  21.5100  21.5100
    22.4752  22.4752  22.5428  22.5428  23.3835  23.3835  23.7909  23.7909
    24.1683  24.1683  25.3584  25.3584  25.5586  25.5586  26.3409  26.3409
    26.3916  26.3916  26.4307  26.4307  26.8943  26.8943  27.9655  27.9655
    28.3319  28.3319  30.1031  30.1031  30.9653  30.9654  32.4203  32.4203
    32.9477  32.9477  34.5523  34.5523  35.4819  35.4819  36.7354  36.7354
    38.1660  38.1660  39.3527  39.3527  40.4060  40.4060  43.1839  43.1839
    43.5757  43.5757  44.3603  44.3603  44.6713  44.6713  44.6899  44.6899
    46.7044  46.7045  47.9781  47.9781  48.7296  48.7296  49.5650  49.5650
    50.8388  50.8388  51.9347  51.9347  52.1401  52.1401  52.7103  52.7103
    53.0637  53.0637  53.8833  53.8833  53.9628  53.9628  54.5279  54.5279

          k = 0.0000-0.5774 0.4036 ( 10718 PWs)   bands (ev):

    -7.1233  -7.1233  -5.4097  -5.4096  -4.9186  -4.9185  -3.7913  -3.7913
     2.5252   2.5252   3.1727   3.1727   3.7506   3.7506   4.7141   4.7142
     5.7753   5.7753   5.8136   5.8136   6.3265   6.3265   6.9118   6.9118
     8.0868   8.0868   8.5454   8.5454   8.7577   8.7577   9.4039   9.4039
    18.7167  18.7167  19.6630  19.6630  20.0803  20.0803  20.4092  20.4092
    22.1831  22.1831  22.8206  22.8206  22.8347  22.8347  23.0959  23.0959
    23.8567  23.8567  24.3374  24.3374  25.2054  25.2054  25.5010  25.5011
    25.7241  25.7241  26.7537  26.7538  27.0330  27.0330  27.1869  27.1869
    30.2337  30.2337  31.2076  31.2076  31.9970  31.9970  33.1074  33.1074
    34.7266  34.7266  35.6042  35.6042  36.6234  36.6234  36.6738  36.6738
    38.4535  38.4535  38.7917  38.7917  39.7813  39.7813  41.0493  41.0493
    41.7972  41.7972  44.0578  44.0578  44.1595  44.1595  44.3248  44.3248
    47.2337  47.2337  48.4674  48.4674  50.0320  50.0320  50.9908  50.9908
    51.0406  51.0406  51.2386  51.2386  52.9289  52.9289  53.1108  53.1108
    53.2082  53.2082  53.7226  53.7226  55.0725  55.0725  56.0246  56.0246

          k = 0.1667 0.2887 0.0000 ( 10725 PWs)   bands (ev):

    -8.6323  -6.1355  -6.1355  -4.6267  -4.5547  -3.5311  -3.3237  -3.3236
     0.8553   2.0945   2.5586   2.5586   3.2903   3.2903   3.8978   4.8036
     4.8718   4.9595   4.9595   6.3143   6.3143   6.7428   7.5074   7.7852
     8.1044   8.1044   8.2770   9.1138   9.1139   9.9844  10.6525  10.8320
    17.7855  18.8072  18.8072  19.5518  19.7293  19.7293  20.2344  20.7046
    20.8074  22.0625  22.0625  22.2644  23.2123  23.3271  23.5106  23.5106
    23.5713  23.9443  23.9443  24.5852  24.7803  25.6037  25.8894  26.8777
    26.8777  27.0669  27.2433  27.2433  27.3764  28.0984  28.0984  28.5789
    29.3520  29.7242  29.7242  30.6486  31.4556  32.2145  32.2145  32.3781
    34.3040  34.6658  34.9601  35.7383  35.7383  36.0584  36.0584  36.4471
    37.8779  37.9026  38.1151  38.1151  40.0064  40.0064  40.2273  40.9762
    41.6042  41.9675  43.7433  45.9885  45.9885  46.0744  46.5391  46.6883
    46.6883  47.6126  47.7953  47.7953  48.6669  49.4407  49.9890  49.9890
    50.2684  50.6787  50.6787  52.0970  52.0970  52.3699  52.4631  52.5145
    52.5954  52.9176  53.8621  54.0170  54.0171  55.0232  55.0232  55.7064

          k = 0.1667 0.2887 0.4036 ( 10715 PWs)   bands (ev):

    -7.9792  -6.1683  -5.5918  -5.5918  -4.2863  -4.2301  -4.2301  -3.6965
     1.5491   2.1976   2.1977   2.3901   3.5175   3.5175   3.5364   4.9284
     5.9126   5.9126   6.4575   6.8253   6.8254   7.1680   7.8601   8.0318
     8.0318   8.0460   8.2685   8.6460   8.6460   8.8201   9.5477  10.0798
    18.4855  18.4855  18.8582  19.4539  19.4539  19.9609  20.4624  20.9434
    21.3407  21.8707  21.9476  21.9476  21.9810  22.6426  22.7306  23.1692
    23.1692  23.4808  23.6538  23.6538  24.0062  24.4501  26.1797  26.1797
    26.2434  26.2724  26.8209  26.8209  27.3306  28.0543  28.0543  28.6576
    31.1466  31.1466  31.7778  32.0054  32.2780  32.8109  32.9298  32.9298
    35.5600  35.9724  36.1946  36.1946  36.4363  36.5303  37.4269  37.4269
    38.2531  38.2531  38.8113  38.9804  39.6090  40.0932  41.1440  41.1440
    41.2294  41.3436  42.0293  42.0293  42.8834  44.0430  44.1913  44.1913
    44.7831  45.9867  48.2351  49.7703  49.8257  49.8257  50.3577  50.3577
    50.5373  50.6515  51.1487  51.5317  51.5317  52.6347  52.6347  52.9745
    53.1557  53.7416  54.2576  54.2576  54.8594  56.0641  56.0641  56.8102

          k = 0.1667 0.4811 0.0000 ( 10733 PWs)   bands (ev):

    -8.0410  -7.1864  -6.3780  -4.4545  -4.1415  -3.6448  -3.3702  -3.3045
     1.4381   2.2725   2.2985   3.0626   3.4387   3.7544   4.0150   4.6124
     4.6228   5.0402   5.8458   6.1847   6.5184   6.5226   6.8043   7.2394
     7.2404   8.3730   8.4875   8.6639   9.1950   9.5793  10.0682  10.1931
    16.9968  18.8260  19.0591  19.4004  20.5041  20.6266  20.9171  21.2077
    21.7440  22.4936  22.6680  22.8612  23.1934  23.5535  23.7746  23.9346
    24.1302  24.5588  24.6474  25.3958  25.7134  25.7670  26.0749  26.0887
    26.1006  26.7589  26.8038  26.8461  27.0707  27.4901  27.5018  27.7255
    28.4384  28.5792  29.3436  30.7670  30.8842  30.9168  31.2769  31.6589
    33.3691  34.1243  34.6508  35.0048  35.7170  36.0386  36.4968  36.7375
    37.7116  38.9848  39.0146  39.6431  40.2293  40.3198  40.8329  41.3859
    42.4982  44.2244  44.3237  44.3320  44.9115  45.3079  46.2585  46.2716
    46.4429  47.3103  47.5159  48.6351  48.9165  49.0741  50.1016  50.2757
    50.2857  50.9051  51.2346  51.2690  51.4797  52.0379  52.3446  52.8222
    53.0807  53.4114  53.4128  54.1878  54.3557  54.4292  55.1413  55.2940

          k = 0.1667 0.4811 0.4036 ( 10722 PWs)   bands (ev):

    -7.4033  -6.5794  -5.8129  -5.6527  -4.9522  -4.3559  -4.1267  -3.5527
     2.1544   2.7419   2.9504   3.4541   3.7897   3.8216   4.1414   5.0978
     5.2794   5.7272   5.7564   6.1937   6.5170   6.9059   7.2965   7.3485
     7.3969   8.0302   8.2165   8.5240   8.7632   8.9058   8.9640   9.3740
    18.8932  19.2530  19.4648  19.5533  20.1189  20.3691  20.8186  21.1030
    21.7003  21.9641  22.0227  22.0916  22.2443  22.8544  23.4005  23.4308
    23.7201  23.7263  24.1043  24.3557  25.2155  25.3292  25.3799  25.5797
    25.7569  26.1723  26.3564  26.5641  27.1554  27.2525  27.4404  28.1152
    30.4536  30.7242  30.9566  31.1466  31.6235  32.0290  32.0937  32.3713
    35.2674  35.5482  35.6821  35.8905  35.9716  36.5760  36.8115  36.9805
    38.1623  38.3202  38.5646  38.8465  39.9764  40.4459  40.8214  41.0656
    41.6493  42.2910  43.0189  43.1496  44.1796  44.6304  44.6461  44.6932
    46.7590  48.0218  48.1065  49.0554  49.1747  50.0637  50.4103  50.9647
    51.0106  51.5222  51.6747  51.8531  52.7083  52.7621  52.8282  53.1204
    53.2423  53.5657  53.8524  54.0702  54.2001  55.2832  55.4117  55.9687

          k = 0.3333 0.5774 0.0000 ( 10785 PWs)   bands (ev):

    -7.3245  -7.3245  -7.3245  -3.7571  -3.7569  -3.7054  -3.7054  -3.7054
     2.0965   2.1421   2.1421   2.1421   4.1599   4.1603   4.7445   4.7445
     4.7450   5.6733   5.6737   5.6737   5.9194   5.9197   5.9347   7.7458
     7.7458   7.7462   9.2034   9.2040   9.2040   9.3896   9.3896   9.3897
    16.5873  19.7850  19.7850  19.7853  20.3807  20.3814  20.3814  21.8226
    21.8227  21.8227  22.9904  22.9905  22.9905  24.4045  24.4045  24.4054
    24.8002  24.8016  24.8016  25.0069  25.0076  25.3369  25.8245  25.8253
    26.6145  26.6150  26.9979  26.9979  26.9982  27.2672  27.2673  27.2674
    28.5432  28.5433  28.5436  30.3885  30.3886  30.3889  32.0958  32.1394
    32.2855  32.2858  35.7802  35.7802  35.7809  36.4291  36.4292  36.4293
    37.6126  39.7755  39.7755  39.7756  40.7924  40.7924  40.7924  41.6963
    41.6965  41.6965  41.8803  45.8269  45.8269  45.8269  46.2443  46.2446
    47.4223  47.4223  47.4223  48.7389  49.4313  49.4313  49.4319  49.8590
    51.4843  51.4846  51.4846  51.5215  51.5220  51.5220  53.0440  53.0444
    53.0444  53.4268  53.4268  54.3068  54.3069  54.3070  54.4995  54.7147

          k = 0.3333 0.5774 0.4036 ( 10713 PWs)   bands (ev):

    -6.7112  -6.7112  -6.7111  -5.0574  -5.0574  -5.0574  -3.6446  -3.6445
     2.7917   2.7919   2.7971   3.7384   3.7384   3.7386   4.6101   5.5197
     5.5197   5.5199   5.9333   5.9333   5.9336   6.9571   6.9573   6.9573
     7.8290   7.8293   8.2769   8.2774   8.2774   8.9131   8.9131   8.9131
    19.2222  19.7803  19.7806  19.7806  20.6576  20.6576  20.6578  21.5835
    21.5837  21.9166  21.9167  21.9167  22.5164  22.5164  22.5165  23.8061
    24.0637  24.0639  24.0639  24.7383  24.7383  24.7395  25.8527  25.8532
    26.2962  26.2965  26.2965  26.6527  26.6534  26.6534  28.0266  28.0270
    30.5470  30.8259  30.8259  30.8259  31.0165  31.4593  31.4593  31.4595
    35.2749  35.2754  35.9876  35.9878  35.9878  36.5410  36.5410  36.5415
    38.3648  38.3648  38.3649  38.8525  40.5580  40.5580  40.5585  40.6736
    43.3985  43.3987  43.3987  43.5316  43.5317  43.5317  44.7704  44.7708
    48.5523  48.5526  48.5526  48.6573  48.6576  48.6576  50.7857  50.7857
    50.7864  51.9955  52.2799  52.2801  52.2801  53.1562  53.1562  53.1564
    53.7011  53.7011  53.7013  53.9856  53.9860  54.5742  54.5863  54.5867

          k =-0.1667 0.0962 0.0000 ( 10729 PWs)   bands (ev):

    -8.9332  -5.6826  -5.1090  -5.1090  -4.7795  -3.5158  -3.5157  -3.3983
     0.5578   1.9674   1.9674   2.0605   3.6501   3.7789   3.7789   4.3813
     4.3813   4.4220   5.9317   5.9317   6.5042   7.0902   7.0902   7.5793
     8.5461   8.8660   8.8660   8.9566   9.3950  10.8152  10.9524  11.2376
    18.2047  18.7853  18.7853  19.0842  19.0842  19.5544  19.6574  20.0950
    20.3572  21.4610  22.0096  22.1622  22.1622  22.7014  23.0530  23.4446
    23.7436  23.7436  23.8005  23.8640  24.5109  24.5109  26.1855  26.1855
    26.5748  27.4504  27.6280  27.7237  27.7237  28.8882  28.9895  28.9895
    30.5127  30.6840  30.8650  30.8650  32.7181  32.9949  32.9949  33.1211
    34.1709  35.2351  35.2351  35.6511  35.8486  35.9890  35.9890  36.7995
    36.8536  37.6523  38.2344  38.2344  38.9169  39.8934  40.0382  40.1047
    40.2004  40.2004  44.9424  44.9424  45.2457  46.0487  46.0487  46.7888
    46.9007  47.8488  48.5297  48.5297  48.8676  49.1357  49.5032  49.8683
    50.6321  50.6321  51.6179  51.9758  51.9758  52.2753  53.0126  53.5221
    53.5221  53.6346  53.7720  53.7720  54.4143  54.4799  55.0310  55.0310

          k = 0.0000 0.1925-0.4036 ( 10732 PWs)   bands (ev):

    -8.2734  -6.4370  -5.1870  -4.6917  -4.6917  -4.0337  -3.8498  -3.8497
     1.3297   1.3297   1.5603   2.3215   2.3218   2.7638   3.3493   6.0994
     6.0997   6.2390   6.9029   6.9031   7.0788   7.6901   7.6902   8.0812
     8.3130   8.3739   8.3740   8.4818   9.0400   9.4342  10.2045  10.5542
    17.9626  18.3033  18.3037  18.6314  19.0258  19.0258  20.1767  20.9252
    21.0618  21.4422  21.8276  22.1129  22.1129  22.2084  22.6694  22.6695
    22.7126  22.9085  23.4842  23.4843  23.7413  23.8373  26.1902  26.2982
    26.7189  26.7193  27.0852  27.0855  27.2277  28.5242  28.7026  28.7029
    31.7849  32.1482  32.1483  32.7891  33.2155  33.2159  33.4815  34.5994
    34.7959  36.3189  36.7140  36.7141  36.8520  37.2752  37.2754  37.9739
    37.9907  39.0420  39.0678  39.0680  39.4599  39.4628  40.3560  41.5177
    41.5655  41.5657  41.5900  41.9911  41.9912  43.1872  43.2893  43.2895
    43.6270  44.4314  47.9882  48.3024  48.4509  48.5949  48.5952  49.6891
    49.6893  49.8039  50.4005  51.8775  52.0227  52.0233  52.8106  53.2548
    53.2922  53.2925  55.1763  55.1764  55.7141  56.1225  57.3298  57.5797

          k =-0.1667 0.0962 0.4036 ( 10732 PWs)   bands (ev):

    -8.2734  -6.4370  -5.1870  -4.6918  -4.6917  -4.0338  -3.8497  -3.8497
     1.3298   1.3298   1.5601   2.3219   2.3219   2.7635   3.3493   6.0994
     6.0994   6.2391   6.9030   6.9030   7.0791   7.6899   7.6900   8.0811
     8.3128   8.3740   8.3740   8.4822   9.0394   9.4349  10.2039  10.5548
    17.9628  18.3034  18.3034  18.6315  19.0257  19.0257  20.1771  20.9244
    21.0617  21.4425  21.8278  22.1126  22.1126  22.2093  22.6697  22.6697
    22.7115  22.9084  23.4843  23.4843  23.7414  23.8370  26.1903  26.2986
    26.7190  26.7191  27.0854  27.0854  27.2273  28.5246  28.7025  28.7025
    31.7850  32.1481  32.1481  32.7888  33.2159  33.2159  33.4811  34.5995
    34.7964  36.3187  36.7140  36.7141  36.8519  37.2755  37.2755  37.9736
    37.9906  39.0421  39.0681  39.0681  39.4602  39.4624  40.3561  41.5171
    41.5660  41.5660  41.5901  41.9912  41.9912  43.1871  43.2894  43.2894
    43.6270  44.4315  47.9887  48.3024  48.4504  48.5950  48.5950  49.6892
    49.6892  49.8039  50.4004  51.8768  52.0234  52.0234  52.8105  53.2550
    53.2921  53.2921  55.1763  55.1763  55.7139  56.1222  57.3295  57.5804

          k = 0.1667-0.0962 0.4036 ( 10732 PWs)   bands (ev):

    -8.2734  -6.4370  -5.1870  -4.6918  -4.6917  -4.0338  -3.8497  -3.8497
     1.3297   1.3298   1.5601   2.3219   2.3219   2.7635   3.3493   6.0994
     6.0994   6.2391   6.9030   6.9030   7.0791   7.6899   7.6900   8.0811
     8.3128   8.3740   8.3740   8.4822   9.0394   9.4349  10.2039  10.5548
    17.9628  18.3034  18.3034  18.6315  19.0257  19.0257  20.1771  20.9244
    21.0617  21.4425  21.8278  22.1126  22.1126  22.2093  22.6697  22.6697
    22.7115  22.9084  23.4843  23.4843  23.7414  23.8370  26.1903  26.2986
    26.7190  26.7191  27.0854  27.0854  27.2273  28.5246  28.7025  28.7025
    31.7850  32.1481  32.1481  32.7888  33.2159  33.2159  33.4811  34.5995
    34.7964  36.3187  36.7140  36.7141  36.8519  37.2755  37.2755  37.9737
    37.9906  39.0421  39.0681  39.0681  39.4602  39.4624  40.3561  41.5171
    41.5660  41.5660  41.5901  41.9912  41.9912  43.1871  43.2894  43.2894
    43.6270  44.4315  47.9887  48.3024  48.4504  48.5950  48.5950  49.6892
    49.6892  49.8039  50.4004  51.8768  52.0234  52.0234  52.8105  53.2550
    53.2921  53.2921  55.1763  55.1763  55.7139  56.1222  57.3295  57.5811

          k =-0.3333 0.1925 0.0000 ( 10722 PWs)   bands (ev):

    -8.4832  -6.7804  -5.3166  -5.3165  -4.4470  -3.4907  -3.2533  -3.2532
     1.0025   2.4076   2.4076   2.6455   3.1450   3.9515   3.9515   4.2558
     4.2558   5.3720   5.3721   5.8508   6.8768   6.9127   7.3990   7.3991
     7.9402   7.9402   8.2891   8.7120   9.3992   9.7386  10.4945  10.8043
    18.0641  18.0641  18.3991  19.1424  20.3051  20.7413  20.8117  20.8777
    20.8777  21.8928  22.3346  23.0005  23.0219  23.0219  23.2593  23.3996
    24.3247  24.3247  24.3996  24.9479  24.9865  24.9865  26.3829  26.3829
    26.7442  26.7969  27.2926  27.3394  27.3394  27.8606  27.9841  27.9841
    28.9534  28.9565  30.1875  30.1875  31.8338  31.8338  32.4008  32.5447
    32.9934  34.5496  34.7611  34.7611  35.5836  35.5836  36.4092  36.6693
    38.0489  38.2317  38.2317  39.2857  40.3042  40.3101  41.3106  41.4364
    41.4364  41.9326  44.2207  44.2207  45.9526  45.9526  46.5937  46.6348
    47.5268  47.8273  48.1396  48.2512  48.2512  48.3934  49.5101  49.5428
    50.1151  51.1446  51.1446  51.6660  51.6660  51.7346  51.8452  52.6172
    53.0441  53.7387  53.7387  53.9698  53.9698  54.0468  55.1326  56.2671

          k = 0.0000 0.3849-0.4036 ( 10722 PWs)   bands (ev):

    -7.8336  -6.1944  -6.0366  -4.8511  -4.8510  -4.6552  -3.8027  -3.8026
     1.9408   1.9409   2.7969   2.9558   2.9561   3.6154   4.3072   5.1415
     5.1417   5.7206   6.4484   6.4486   7.0262   7.0263   7.3951   7.4770
     7.7564   8.4858   8.4859   8.5924   8.8040   8.8500   9.1477  10.0329
    18.1973  19.0660  19.0663  19.2994  19.4340  20.4020  20.4021  20.8082
    21.8306  21.9149  21.9781  21.9782  22.1367  22.9044  23.1095  23.1096
    23.5126  23.6792  23.8252  23.9238  23.9239  24.6520  26.0116  26.0116
    26.0431  26.2833  26.4358  27.1032  27.1032  27.7599  28.0879  28.0881
    30.6178  31.0989  31.4442  31.4444  32.4295  32.4297  33.1741  33.6048
    34.4157  35.9005  35.9005  36.0102  36.5576  36.8425  36.8427  36.8534
    38.3628  38.5393  38.8610  38.8610  39.6229  40.4601  40.6516  41.2585
    41.2586  41.9252  42.2129  42.8538  42.8541  44.2302  44.2305  44.4626
    44.7205  46.7891  48.9573  49.6703  50.0145  50.1526  50.1530  50.5683
    51.1353  51.3096  51.3098  51.4865  52.0187  52.0190  52.6549  52.7553
    52.7555  53.3196  53.8421  54.7874  55.3387  55.4614  55.4614  56.2179

          k =-0.3333 0.1925 0.4036 ( 10722 PWs)   bands (ev):

    -7.8336  -6.1944  -6.0366  -4.8511  -4.8511  -4.6552  -3.8026  -3.8026
     1.9409   1.9409   2.7966   2.9562   2.9562   3.6154   4.3069   5.1414
     5.1414   5.7207   6.4485   6.4485   7.0259   7.0259   7.3947   7.4774
     7.7562   8.4860   8.4860   8.5923   8.8045   8.8504   9.1474  10.0335
    18.1975  19.0661  19.0661  19.2996  19.4342  20.4021  20.4021  20.8085
    21.8299  21.9150  21.9778  21.9778  22.1369  22.9048  23.1099  23.1099
    23.5123  23.6792  23.8243  23.9239  23.9239  24.6523  26.0121  26.0121
    26.0437  26.2835  26.4352  27.1027  27.1027  27.7603  28.0876  28.0876
    30.6177  31.0986  31.4441  31.4441  32.4299  32.4299  33.1738  33.6047
    34.4160  35.9005  35.9005  36.0101  36.5576  36.8429  36.8429  36.8535
    38.3626  38.5390  38.8612  38.8612  39.6233  40.4602  40.6517  41.2588
    41.2588  41.9249  42.2130  42.8541  42.8541  44.2304  44.2304  44.4628
    44.7202  46.7893  48.9571  49.6703  50.0143  50.1527  50.1527  50.5685
    51.1348  51.3096  51.3096  51.4862  52.0190  52.0190  52.6545  52.7554
    52.7554  53.3195  53.8423  54.7872  55.3383  55.4613  55.4614  56.2176

          k = 0.3333-0.1925 0.4036 ( 10722 PWs)   bands (ev):

    -7.8336  -6.1944  -6.0366  -4.8511  -4.8511  -4.6552  -3.8026  -3.8026
     1.9409   1.9409   2.7966   2.9562   2.9562   3.6154   4.3069   5.1414
     5.1414   5.7207   6.4485   6.4485   7.0259   7.0259   7.3947   7.4774
     7.7562   8.4860   8.4860   8.5923   8.8045   8.8504   9.1474  10.0335
    18.1975  19.0661  19.0661  19.2996  19.4342  20.4021  20.4021  20.8085
    21.8299  21.9150  21.9778  21.9778  22.1369  22.9048  23.1099  23.1099
    23.5123  23.6792  23.8243  23.9239  23.9239  24.6523  26.0121  26.0121
    26.0437  26.2835  26.4352  27.1027  27.1027  27.7603  28.0876  28.0876
    30.6177  31.0986  31.4441  31.4441  32.4299  32.4299  33.1738  33.6047
    34.4160  35.9005  35.9005  36.0101  36.5576  36.8429  36.8429  36.8535
    38.3626  38.5390  38.8612  38.8612  39.6233  40.4602  40.6517  41.2588
    41.2588  41.9249  42.2130  42.8541  42.8541  44.2304  44.2304  44.4628
    44.7202  46.7893  48.9571  49.6703  50.0143  50.1527  50.1527  50.5685
    51.1348  51.3096  51.3096  51.4862  52.0190  52.0190  52.6545  52.7554
    52.7554  53.3195  53.8423  54.7872  55.3383  55.4613  55.4614  56.2176

          k = 0.5000-0.2887 0.0000 ( 10722 PWs)   bands (ev):

    -7.7518  -7.7518  -5.4016  -5.4015  -3.9610  -3.9609  -3.1447  -3.1446
     1.7206   1.7206   3.1374   3.1374   3.3631   3.3631   4.0344   4.0345
     4.8993   4.8993   5.6536   5.6536   7.2394   7.2394   7.5418   7.5418
     7.6011   7.6011   7.6253   7.6253   9.7379   9.7380  10.2468  10.2468
    17.6883  17.6883  18.7273  18.7273  20.8675  20.8675  21.5096  21.5096
    22.4753  22.4753  22.5422  22.5422  23.3831  23.3832  23.7916  23.7916
    24.1689  24.1689  25.3591  25.3591  25.5588  25.5588  26.3415  26.3415
    26.3901  26.3901  26.4298  26.4298  26.8949  26.8949  27.9650  27.9651
    28.3313  28.3313  30.1035  30.1035  30.9658  30.9658  32.4198  32.4198
    32.9477  32.9477  34.5523  34.5523  35.4825  35.4825  36.7356  36.7356
    38.1662  38.1662  39.3528  39.3528  40.4053  40.4053  43.1840  43.1840
    43.5758  43.5758  44.3602  44.3602  44.6715  44.6715  44.6896  44.6896
    46.7051  46.7051  47.9783  47.9784  48.7298  48.7298  49.5657  49.5657
    50.8393  50.8393  51.9346  51.9346  52.1394  52.1394  52.7097  52.7097
    53.0637  53.0638  53.8832  53.8832  53.9625  53.9625  54.5277  54.5277

          k = 0.5000-0.2887 0.4036 ( 10718 PWs)   bands (ev):

    -7.1233  -7.1233  -5.4097  -5.4097  -4.9186  -4.9186  -3.7913  -3.7913
     2.5255   2.5255   3.1729   3.1729   3.7504   3.7504   4.7140   4.7140
     5.7751   5.7751   5.8134   5.8134   6.3262   6.3262   6.9116   6.9116
     8.0872   8.0873   8.5455   8.5456   8.7577   8.7577   9.4043   9.4043
    18.7169  18.7169  19.6629  19.6629  20.0805  20.0805  20.4091  20.4091
    22.1832  22.1832  22.8201  22.8201  22.8348  22.8348  23.0954  23.0954
    23.8567  23.8567  24.3378  24.3378  25.2047  25.2047  25.5015  25.5016
    25.7250  25.7250  26.7541  26.7542  27.0321  27.0321  27.1861  27.1861
    30.2335  30.2335  31.2076  31.2076  31.9973  31.9973  33.1070  33.1071
    34.7267  34.7267  35.6042  35.6042  36.6235  36.6235  36.6742  36.6742
    38.4532  38.4532  38.7920  38.7920  39.7816  39.7816  41.0496  41.0496
    41.7972  41.7972  44.0578  44.0578  44.1597  44.1597  44.3251  44.3251
    47.2336  47.2336  48.4672  48.4672  50.0318  50.0318  50.9907  50.9907
    51.0401  51.0401  51.2387  51.2387  52.9288  52.9288  53.1109  53.1109
    53.2081  53.2081  53.7224  53.7224  55.0722  55.0722  56.0247  56.0247

          k =-0.1667 0.2887 0.0000 ( 10725 PWs)   bands (ev):

    -8.6323  -6.1355  -6.1355  -4.6268  -4.5547  -3.5308  -3.3237  -3.3236
     0.8554   2.0943   2.5585   2.5586   3.2903   3.2903   3.8984   4.8033
     4.8716   4.9592   4.9596   6.3143   6.3145   6.7433   7.5068   7.7849
     8.1041   8.1044   8.2776   9.1138   9.1142   9.9839  10.6525  10.8326
    17.7851  18.8077  18.8078  19.5524  19.7285  19.7292  20.2335  20.7046
    20.8073  22.0625  22.0626  22.2648  23.2118  23.3265  23.5106  23.5106
    23.5726  23.9446  23.9449  24.5851  24.7797  25.6032  25.8899  26.8773
    26.8779  27.0669  27.2430  27.2437  27.3762  28.0977  28.0981  28.5795
    29.3516  29.7242  29.7243  30.6480  31.4556  32.2139  32.2146  32.3791
    34.3037  34.6656  34.9607  35.7387  35.7387  36.0580  36.0586  36.4473
    37.8779  37.9026  38.1147  38.1152  40.0057  40.0067  40.2271  40.9767
    41.6034  41.9681  43.7433  45.9883  45.9887  46.0740  46.5399  46.6884
    46.6885  47.6123  47.7960  47.7961  48.6663  49.4403  49.9887  49.9895
    50.2688  50.6786  50.6788  52.0965  52.0966  52.3701  52.4634  52.5143
    52.5959  52.9176  53.8621  54.0165  54.0171  55.0232  55.0234  55.7065

          k =-0.1667 0.2887-0.4036 ( 10715 PWs)   bands (ev):

    -7.9792  -6.1683  -5.5918  -5.5918  -4.2865  -4.2302  -4.2301  -3.6963
     1.5492   2.1975   2.1977   2.3905   3.5172   3.5176   3.5364   4.9281
     5.9125   5.9127   6.4572   6.8254   6.8257   7.1678   7.8599   8.0315
     8.0319   8.0454   8.2688   8.6459   8.6460   8.8206   9.5474  10.0804
    18.4856  18.4858  18.8579  19.4538  19.4540  19.9615  20.4625  20.9424
    21.3405  21.8716  21.9473  21.9475  21.9809  22.6430  22.7307  23.1692
    23.1693  23.4796  23.6537  23.6540  24.0062  24.4505  26.1800  26.1800
    26.2435  26.2727  26.8205  26.8205  27.3301  28.0540  28.0545  28.6572
    31.1464  31.1465  31.7775  32.0054  32.2784  32.8112  32.9295  32.9298
    35.5597  35.9725  36.1947  36.1947  36.4367  36.5306  37.4267  37.4273
    38.2531  38.2531  38.8111  38.9804  39.6089  40.0934  41.1443  41.1445
    41.2293  41.3440  42.0290  42.0293  42.8838  44.0428  44.1914  44.1915
    44.7823  45.9870  48.2359  49.7694  49.8254  49.8256  50.3575  50.3576
    50.5376  50.6517  51.1484  51.5311  51.5316  52.6347  52.6348  52.9749
    53.1556  53.7414  54.2575  54.2576  54.8594  56.0639  56.0641  56.8104

          k = 0.1667-0.2887-0.4036 ( 10715 PWs)   bands (ev):

    -7.9792  -6.1683  -5.5918  -5.5918  -4.2865  -4.2302  -4.2301  -3.6963
     1.5492   2.1975   2.1977   2.3905   3.5172   3.5176   3.5364   4.9281
     5.9125   5.9127   6.4572   6.8254   6.8257   7.1678   7.8599   8.0315
     8.0319   8.0454   8.2688   8.6459   8.6460   8.8206   9.5474  10.0804
    18.4856  18.4858  18.8579  19.4538  19.4540  19.9615  20.4625  20.9424
    21.3405  21.8716  21.9473  21.9476  21.9809  22.6430  22.7307  23.1692
    23.1693  23.4796  23.6537  23.6540  24.0062  24.4505  26.1800  26.1800
    26.2435  26.2727  26.8205  26.8205  27.3301  28.0540  28.0545  28.6572
    31.1464  31.1465  31.7775  32.0054  32.2784  32.8112  32.9295  32.9298
    35.5597  35.9725  36.1947  36.1947  36.4367  36.5306  37.4267  37.4273
    38.2531  38.2531  38.8111  38.9804  39.6089  40.0934  41.1443  41.1445
    41.2293  41.3440  42.0290  42.0293  42.8838  44.0428  44.1914  44.1915
    44.7823  45.9870  48.2359  49.7694  49.8254  49.8256  50.3575  50.3576
    50.5376  50.6517  51.1484  51.5311  51.5316  52.6347  52.6348  52.9749
    53.1556  53.7414  54.2575  54.2576  54.8594  56.0639  56.0641  56.8104

          k =-0.1667 0.4811 0.0000 ( 10733 PWs)   bands (ev):

    -8.0410  -7.1864  -6.3780  -4.4545  -4.1415  -3.6448  -3.3700  -3.3046
     1.4381   2.2725   2.2985   3.0626   3.4386   3.7544   4.0151   4.6125
     4.6229   5.0401   5.8455   6.1848   6.5183   6.5226   6.8043   7.2394
     7.2406   8.3731   8.4875   8.6637   9.1950   9.5791  10.0682  10.1934
    16.9966  18.8263  19.0594  19.4004  20.5034  20.6265  20.9168  21.2078
    21.7439  22.4937  22.6683  22.8614  23.1933  23.5537  23.7745  23.9346
    24.1299  24.5590  24.6480  25.3955  25.7135  25.7671  26.0746  26.0882
    26.1005  26.7589  26.8035  26.8460  27.0701  27.4902  27.5027  27.7255
    28.4384  28.5793  29.3436  30.7663  30.8840  30.9165  31.2771  31.6597
    33.3693  34.1245  34.6505  35.0052  35.7173  36.0383  36.4968  36.7376
    37.7115  38.9847  39.0144  39.6431  40.2296  40.3195  40.8327  41.3866
    42.4982  44.2249  44.3238  44.3317  44.9107  45.3080  46.2581  46.2717
    46.4430  47.3105  47.5161  48.6349  48.9168  49.0744  50.1017  50.2755
    50.2857  50.9055  51.2346  51.2692  51.4800  52.0385  52.3442  52.8223
    53.0806  53.4117  53.4125  54.1877  54.3557  54.4287  55.1411  55.2940

          k =-0.3333 0.3849 0.0000 ( 10733 PWs)   bands (ev):

    -8.0410  -7.1864  -6.3780  -4.4546  -4.1415  -3.6449  -3.3699  -3.3045
     1.4381   2.2725   2.2984   3.0625   3.4388   3.7545   4.0148   4.6124
     4.6230   5.0400   5.8453   6.1848   6.5185   6.5225   6.8044   7.2393
     7.2408   8.3726   8.4876   8.6635   9.1948   9.5796  10.0682  10.1937
    16.9966  18.8262  19.0595  19.4008  20.5039  20.6262  20.9163  21.2078
    21.7440  22.4935  22.6684  22.8613  23.1931  23.5540  23.7749  23.9350
    24.1297  24.5590  24.6478  25.3960  25.7138  25.7674  26.0740  26.0886
    26.1002  26.7586  26.8039  26.8465  27.0699  27.4901  27.5019  27.7252
    28.4379  28.5790  29.3439  30.7667  30.8840  30.9171  31.2766  31.6597
    33.3689  34.1250  34.6505  35.0047  35.7172  36.0390  36.4969  36.7377
    37.7115  38.9848  39.0148  39.6433  40.2287  40.3193  40.8330  41.3862
    42.4982  44.2249  44.3238  44.3318  44.9108  45.3079  46.2584  46.2719
    46.4433  47.3106  47.5163  48.6350  48.9168  49.0741  50.1021  50.2763
    50.2860  50.9052  51.2344  51.2697  51.4795  52.0378  52.3443  52.8221
    53.0807  53.4116  53.4122  54.1876  54.3553  54.4288  55.1411  55.2940

          k =-0.1667 0.4811-0.4036 ( 10722 PWs)   bands (ev):

    -7.4033  -6.5794  -5.8129  -5.6527  -4.9522  -4.3559  -4.1267  -3.5527
     2.1545   2.7421   2.9503   3.4542   3.7897   3.8214   4.1413   5.0978
     5.2792   5.7272   5.7565   6.1939   6.5169   6.9057   7.2965   7.3484
     7.3970   8.0304   8.2166   8.5236   8.7631   8.9059   8.9642   9.3743
    18.8932  19.2529  19.4650  19.5536  20.1189  20.3690  20.8184  21.1031
    21.7000  21.9642  22.0225  22.0915  22.2448  22.8544  23.4004  23.4307
    23.7202  23.7264  24.1045  24.3546  25.2155  25.3299  25.3800  25.5803
    25.7570  26.1716  26.3565  26.5638  27.1551  27.2527  27.4402  28.1150
    30.4535  30.7242  30.9565  31.1469  31.6237  32.0289  32.0936  32.3714
    35.2674  35.5479  35.6822  35.8906  35.9718  36.5761  36.8117  36.9804
    38.1622  38.3202  38.5646  38.8464  39.9761  40.4464  40.8213  41.0657
    41.6494  42.2910  43.0194  43.1495  44.1800  44.6306  44.6457  44.6931
    46.7590  48.0214  48.1058  49.0563  49.1747  50.0632  50.4101  50.9650
    51.0108  51.5215  51.6747  51.8532  52.7084  52.7620  52.8284  53.1201
    53.2426  53.5659  53.8523  54.0702  54.2000  55.2830  55.4118  55.9687

          k = 0.1667-0.4811-0.4036 ( 10722 PWs)   bands (ev):

    -7.4033  -6.5794  -5.8129  -5.6527  -4.9522  -4.3559  -4.1267  -3.5527
     2.1544   2.7421   2.9503   3.4542   3.7897   3.8214   4.1413   5.0978
     5.2792   5.7272   5.7565   6.1938   6.5169   6.9057   7.2965   7.3484
     7.3970   8.0304   8.2166   8.5236   8.7631   8.9059   8.9642   9.3743
    18.8932  19.2529  19.4650  19.5536  20.1189  20.3690  20.8184  21.1031
    21.7000  21.9642  22.0225  22.0915  22.2448  22.8544  23.4004  23.4307
    23.7202  23.7264  24.1045  24.3546  25.2155  25.3299  25.3800  25.5803
    25.7570  26.1716  26.3565  26.5638  27.1551  27.2527  27.4402  28.1150
    30.4535  30.7242  30.9565  31.1469  31.6237  32.0289  32.0936  32.3714
    35.2674  35.5479  35.6822  35.8906  35.9718  36.5761  36.8117  36.9804
    38.1622  38.3202  38.5646  38.8464  39.9761  40.4464  40.8213  41.0657
    41.6494  42.2910  43.0194  43.1495  44.1800  44.6306  44.6457  44.6931
    46.7590  48.0214  48.1058  49.0563  49.1747  50.0632  50.4101  50.9650
    51.0108  51.5216  51.6747  51.8532  52.7083  52.7619  52.8284  53.1201
    53.2426  53.5659  53.8523  54.0702  54.2000  55.2830  55.4118  55.9687

          k =-0.3333 0.3849 0.4036 ( 10722 PWs)   bands (ev):

    -7.4033  -6.5794  -5.8129  -5.6527  -4.9522  -4.3559  -4.1268  -3.5526
     2.1545   2.7423   2.9506   3.4539   3.7896   3.8213   4.1415   5.0976
     5.2791   5.7271   5.7563   6.1938   6.5166   6.9056   7.2968   7.3483
     7.3965   8.0306   8.2167   8.5240   8.7632   8.9060   8.9640   9.3746
    18.8934  19.2529  19.4652  19.5534  20.1191  20.3690  20.8186  21.1030
    21.6999  21.9643  22.0226  22.0912  22.2445  22.8541  23.4005  23.4305
    23.7203  23.7264  24.1044  24.3546  25.2157  25.3293  25.3809  25.5802
    25.7572  26.1720  26.3567  26.5634  27.1557  27.2519  27.4398  28.1146
    30.4534  30.7241  30.9565  31.1469  31.6240  32.0292  32.0936  32.3711
    35.2673  35.5480  35.6822  35.8906  35.9721  36.5761  36.8114  36.9808
    38.1622  38.3201  38.5649  38.8465  39.9763  40.4462  40.8214  41.0661
    41.6495  42.2910  43.0192  43.1495  44.1800  44.6305  44.6459  44.6933
    46.7590  48.0216  48.1061  49.0557  49.1746  50.0634  50.4097  50.9648
    51.0107  51.5217  51.6744  51.8531  52.7081  52.7621  52.8284  53.1202
    53.2424  53.5659  53.8525  54.0698  54.2001  55.2829  55.4117  55.9687

          k = 0.3333-0.3849 0.4036 ( 10722 PWs)   bands (ev):

    -7.4033  -6.5794  -5.8129  -5.6527  -4.9522  -4.3559  -4.1268  -3.5526
     2.1545   2.7423   2.9506   3.4539   3.7896   3.8213   4.1415   5.0976
     5.2791   5.7271   5.7563   6.1938   6.5166   6.9056   7.2968   7.3483
     7.3965   8.0306   8.2167   8.5240   8.7632   8.9060   8.9640   9.3746
    18.8934  19.2529  19.4652  19.5534  20.1191  20.3690  20.8186  21.1030
    21.6999  21.9643  22.0226  22.0912  22.2445  22.8541  23.4005  23.4305
    23.7203  23.7264  24.1044  24.3546  25.2157  25.3293  25.3809  25.5802
    25.7572  26.1720  26.3567  26.5634  27.1557  27.2519  27.4398  28.1146
    30.4534  30.7241  30.9565  31.1469  31.6240  32.0292  32.0936  32.3711
    35.2673  35.5480  35.6822  35.8905  35.9721  36.5761  36.8114  36.9808
    38.1622  38.3201  38.5649  38.8465  39.9763  40.4462  40.8214  41.0661
    41.6495  42.2910  43.0192  43.1495  44.1800  44.6305  44.6459  44.6933
    46.7590  48.0216  48.1061  49.0557  49.1746  50.0633  50.4097  50.9648
    51.0107  51.5217  51.6744  51.8531  52.7081  52.7621  52.8284  53.1202
    53.2424  53.5659  53.8525  54.0698  54.2001  55.2829  55.4117  55.9687

          k =-0.3333-0.3849-0.4036 ( 10722 PWs)   bands (ev):

    -7.4033  -6.5794  -5.8129  -5.6527  -4.9522  -4.3559  -4.1267  -3.5527
     2.1544   2.7419   2.9504   3.4541   3.7897   3.8216   4.1414   5.0978
     5.2794   5.7272   5.7564   6.1937   6.5170   6.9059   7.2965   7.3485
     7.3969   8.0302   8.2165   8.5240   8.7632   8.9058   8.9640   9.3740
    18.8932  19.2530  19.4648  19.5533  20.1189  20.3691  20.8186  21.1030
    21.7003  21.9642  22.0227  22.0916  22.2443  22.8544  23.4005  23.4308
    23.7201  23.7263  24.1043  24.3557  25.2155  25.3292  25.3799  25.5797
    25.7569  26.1723  26.3564  26.5641  27.1554  27.2525  27.4404  28.1152
    30.4536  30.7242  30.9566  31.1466  31.6235  32.0290  32.0937  32.3713
    35.2674  35.5482  35.6821  35.8905  35.9716  36.5760  36.8115  36.9805
    38.1623  38.3202  38.5646  38.8465  39.9764  40.4459  40.8214  41.0656
    41.6493  42.2910  43.0189  43.1496  44.1796  44.6304  44.6461  44.6932
    46.7590  48.0218  48.1065  49.0554  49.1747  50.0637  50.4103  50.9647
    51.0106  51.5222  51.6747  51.8531  52.7083  52.7621  52.8282  53.1204
    53.2423  53.5657  53.8524  54.0702  54.2001  55.2832  55.4117  55.9687

     highest occupied, lowest unoccupied level (ev):    11.3958   16.5873

!    total energy              =    -318.81449715 Ry
     Harris-Foulkes estimate   =    -318.81449706 Ry
     estimated scf accuracy    <       0.00000007 Ry

     total all-electron energy =     -1275.119661 Ry

     The total energy is the sum of the following terms:

     one-electron contribution =      39.43671953 Ry
     hartree contribution      =      29.12091087 Ry
     xc contribution           =     -71.22647866 Ry
     ewald contribution        =    -210.74165740 Ry
     one-center paw contrib.   =    -105.40399149 Ry

     convergence has been achieved in  10 iterations

     Forces acting on atoms (cartesian axes, Ry/au):

     atom    1 type  1   force =    -0.00004131    0.00002328    0.00151606
     atom    2 type  2   force =    -0.00004204    0.00002361   -0.00151670
     atom    3 type  1   force =     0.00004077   -0.00002420    0.00151713
     atom    4 type  2   force =     0.00004150   -0.00002503   -0.00151682
     atom    5 type  1   force =    -0.00004015    0.00002318    0.00151632
     atom    6 type  2   force =    -0.00004036    0.00002330   -0.00151594
     atom    7 type  1   force =     0.00004066   -0.00002348    0.00151680
     atom    8 type  2   force =     0.00004098   -0.00002366   -0.00151702
     atom    9 type  1   force =    -0.00004091    0.00002362    0.00151575
     atom   10 type  2   force =    -0.00004090    0.00002361   -0.00151611
     atom   11 type  1   force =     0.00004027   -0.00002325    0.00151719
     atom   12 type  2   force =     0.00004001   -0.00002310   -0.00151632
     atom   13 type  1   force =    -0.00004081    0.00002414    0.00151606
     atom   14 type  2   force =    -0.00004147    0.00002461   -0.00151670
     atom   15 type  1   force =     0.00004134   -0.00002321    0.00151713
     atom   16 type  2   force =     0.00004243   -0.00002343   -0.00151682

     Total force =     0.006069     Total SCF correction =     0.000130


     Computing stress (Cartesian axis) and pressure

          total   stress  (Ry/bohr**3)                   (kbar)     P=   69.77
   0.00044444  -0.00000018  -0.00000000         65.38     -0.03     -0.00
  -0.00000018   0.00044423   0.00000000         -0.03     65.35      0.00
  -0.00000000   0.00000000   0.00053422         -0.00      0.00     78.59


     BFGS Geometry Optimization

     number of scf cycles    =   1
     number of bfgs steps    =   0

     enthalpy new            =    -318.5986154000 Ry

     new trust radius        =       0.0244872392 bohr
     new conv_thr            =       0.0000001000 Ry

     new unit-cell volume =    641.56884 a.u.^3 (    95.07069 Ang^3 )
     density =      3.46770 g/cm^3

CELL_PARAMETERS (bohr)
   9.636835948  -0.000043890  -0.000000005
  -4.818455984   8.345722799   0.000000005
  -0.000000004   0.000000003   7.977117372

ATOMIC_POSITIONS (crystal)
B        0.166667100   0.333332796   0.181110975
N        0.166667044   0.333332836   0.806628945
B        0.333332788   0.166667093   0.681111109
N        0.333332814   0.166666993   0.306628930
B        0.666667215   0.333332785   0.181111007
N        0.666667200   0.333332800   0.806629041
B        0.833332820   0.166667180   0.681111067
N        0.833332842   0.166667158   0.306628904
B        0.166667163   0.833332837   0.181110935
N        0.166667163   0.833332837   0.806629019
B        0.333332793   0.666667207   0.681111117
N        0.333332775   0.666667225   0.306628992
B        0.666667204   0.833332900   0.181110975
N        0.666667164   0.833332956   0.806628945
B        0.833332907   0.666667212   0.681111109
N        0.833333007   0.666667186   0.306628930



     Writing output data file pwscf.save/
     NEW-OLD atomic charge density approx. for the potential

     Check: negative/imaginary core charge=   -0.000003    0.000000
     extrapolated charge   64.64070, renormalised to   64.00000

     total cpu time spent up to now is      221.9 secs

     Self-consistent Calculation

     iteration #  1     ecut=   100.00 Ry     beta= 0.10
     Davidson diagonalization with overlap
     ethr =  1.00E-06,  avg # of iterations =  3.3

     total cpu time spent up to now is      269.6 secs

     total energy              =    -318.81255502 Ry
     Harris-Foulkes estimate   =    -319.05495982 Ry
     estimated scf accuracy    <       0.00494386 Ry

     iteration #  2     ecut=   100.00 Ry     beta= 0.10
     Davidson diagonalization with overlap
     ethr =  7.72E-06,  avg # of iterations =  2.0

     total cpu time spent up to now is      287.8 secs

     total energy              =    -318.81685429 Ry
     Harris-Foulkes estimate   =    -318.81693070 Ry
     estimated scf accuracy    <       0.00067583 Ry

     iteration #  3     ecut=   100.00 Ry     beta= 0.10
     Davidson diagonalization with overlap
     ethr =  1.06E-06,  avg # of iterations =  1.0

     total cpu time spent up to now is      302.9 secs

     total energy              =    -318.81656443 Ry
     Harris-Foulkes estimate   =    -318.81686035 Ry
     estimated scf accuracy    <       0.00045590 Ry

     iteration #  4     ecut=   100.00 Ry     beta= 0.10
     Davidson diagonalization with overlap
     ethr =  7.12E-07,  avg # of iterations =  1.3

     total cpu time spent up to now is      318.3 secs

     total energy              =    -318.81672289 Ry
     Harris-Foulkes estimate   =    -318.81673158 Ry
     estimated scf accuracy    <       0.00008162 Ry

     iteration #  5     ecut=   100.00 Ry     beta= 0.10
     Davidson diagonalization with overlap
     ethr =  1.28E-07,  avg # of iterations =  1.0

     total cpu time spent up to now is      333.4 secs

     total energy              =    -318.81669656 Ry
     Harris-Foulkes estimate   =    -318.81672351 Ry
     estimated scf accuracy    <       0.00005694 Ry

     iteration #  6     ecut=   100.00 Ry     beta= 0.10
     Davidson diagonalization with overlap
     ethr =  8.90E-08,  avg # of iterations =  1.0

     total cpu time spent up to now is      348.4 secs

     total energy              =    -318.81670533 Ry
     Harris-Foulkes estimate   =    -318.81670545 Ry
     estimated scf accuracy    <       0.00000058 Ry

     iteration #  7     ecut=   100.00 Ry     beta= 0.10
     Davidson diagonalization with overlap
     ethr =  9.11E-10,  avg # of iterations =  1.0

     total cpu time spent up to now is      363.5 secs

     total energy              =    -318.81670535 Ry
     Harris-Foulkes estimate   =    -318.81670536 Ry
     estimated scf accuracy    <       0.00000015 Ry

     iteration #  8     ecut=   100.00 Ry     beta= 0.10
     Davidson diagonalization with overlap
     ethr =  2.35E-10,  avg # of iterations =  1.0

     total cpu time spent up to now is      378.7 secs

     End of self-consistent calculation

          k = 0.0000 0.0000 0.0000 ( 10789 PWs)   bands (ev):

    -9.1316  -5.0578  -5.0577  -5.0577  -5.0092  -3.7810  -3.7810  -3.7810
     0.3396   1.7572   1.7573   1.7573   3.4369   3.4370   3.4370   4.3334
     4.3335   4.3335   6.2603   6.2603   6.2605   6.8323   6.8324   6.8324
     9.1134   9.1136   9.1139   9.1139   9.1141  10.9497  11.2256  11.2258
    17.9663  17.9663  17.9666  19.1998  19.1998  19.1999  19.6140  19.6140
    19.7937  20.7317  21.8467  21.8467  21.8468  21.9248  22.6944  22.6944
    22.6947  23.1183  23.1183  24.0804  24.0804  24.0804  25.6540  25.6541
    25.6541  27.3520  27.6350  27.6351  27.6351  28.9524  28.9525  28.9525
    31.0474  31.0475  31.0475  32.8799  32.8803  32.9158  33.1275  33.1277
    33.1277  35.2342  35.2343  35.2343  35.3840  35.9636  35.9636  35.9637
    36.8907  37.6423  37.6425  37.9404  37.9404  37.9404  39.5053  39.6585
    39.6587  39.6587  43.6409  43.6410  43.6411  46.5265  46.5270  47.1641
    47.1641  47.1641  48.7985  48.8193  48.8193  48.8195  49.0598  49.0598
    49.0599  50.2781  50.2782  50.2782  52.0437  52.0437  52.0439  52.3360
    52.3363  53.1596  53.1599  54.5108  54.6240  54.6243  54.6243  55.9630

          k = 0.0000-0.0000 0.4016 ( 10735 PWs)   bands (ev):

    -8.4764  -6.6530  -4.6830  -4.6829  -4.6829  -3.9939  -3.9939  -3.9938
     1.0423   1.0423   1.0423   1.9401   1.9401   1.9401   3.1367   6.4630
     6.4630   6.4630   6.8286   6.8286   6.8288   7.9704   7.9704   7.9704
     7.9743   8.2142   8.2142   8.2144   9.5633   9.5635  10.6036  10.6038
    17.7498  17.7498  17.7499  18.1152  18.1152  18.1155  20.3657  20.3658
    20.6006  20.7227  21.8034  21.8034  21.8036  22.0373  22.0374  22.0374
    22.0584  22.0584  23.0093  23.7073  23.7073  23.7074  25.8056  26.0397
    26.0397  26.0399  27.2141  27.2141  27.2141  28.4670  28.4670  28.4671
    32.2052  32.2054  32.2054  33.2538  33.2539  33.2539  34.0328  34.8952
    34.8956  35.0606  36.9683  36.9684  36.9684  37.1134  37.1134  37.1134
    38.2680  38.9045  38.9049  38.9349  38.9350  38.9350  40.0293  40.9389
    40.9390  40.9390  41.8260  41.8260  41.8261  42.5284  42.5287  42.7722
    42.7723  42.7723  46.8750  46.8751  46.8751  47.3833  47.3834  48.5030
    48.5030  48.5030  49.7213  51.5097  51.5098  51.5098  51.9137  52.5079
    52.5079  52.5079  56.7506  56.7506  56.7506  57.0295  57.0297  57.0297

          k = 0.0000 0.1919-0.0000 ( 10729 PWs)   bands (ev):

    -8.9810  -5.7576  -5.1913  -5.1912  -4.8937  -3.6191  -3.6190  -3.5088
     0.4892   1.8702   1.8702   1.9672   3.5553   3.6524   3.6524   4.2850
     4.2851   4.2926   5.8291   5.8293   6.4000   6.9923   6.9924   7.4769
     8.4230   8.7078   8.7080   8.8319   9.2336  10.6502  10.8036  11.0675
    18.0245  18.6054  18.6057  18.9028  18.9030  19.3520  19.4506  19.9150
    20.0619  21.2182  21.8301  21.9468  21.9470  22.4183  22.7991  23.1993
    23.4384  23.4385  23.5179  23.5551  24.2148  24.2149  25.8114  25.8115
    26.2024  27.1320  27.3429  27.4377  27.4378  28.5858  28.6850  28.6851
    30.2372  30.4735  30.5886  30.5887  32.5119  32.7089  32.7091  32.8319
    33.8926  34.9050  34.9051  35.3658  35.5119  35.6753  35.6753  36.5259
    36.5333  37.2979  37.9337  37.9337  38.6728  39.6133  39.6670  39.7672
    39.8773  39.8773  44.6001  44.6002  44.8969  45.6959  45.6959  46.4032
    46.5240  47.4476  48.0969  48.0971  48.5032  48.7523  49.0765  49.5105
    50.2533  50.2534  51.1888  51.5945  51.5945  51.8438  52.6910  53.1552
    53.1692  53.1696  53.3589  53.3589  54.0354  54.0509  54.6663  54.6664

          k = 0.0000 0.1919 0.4016 ( 10732 PWs)   bands (ev):

    -8.3289  -6.5173  -5.2692  -4.7806  -4.7805  -4.1346  -3.9513  -3.9513
     1.2499   1.2500   1.4794   2.2248   2.2249   2.6615   3.2393   5.9899
     5.9900   6.1176   6.7809   6.7809   6.9651   7.5607   7.5608   7.9351
     8.1834   8.2393   8.2394   8.3414   8.9077   9.3016  10.0505  10.3997
    17.7535  18.0851  18.0852  18.4336  18.8279  18.8281  19.9746  20.7313
    20.8303  21.2097  21.5726  21.8598  21.8598  21.9857  22.4029  22.4030
    22.4884  22.6291  23.2451  23.2452  23.4149  23.6228  25.8627  25.9883
    26.4188  26.4188  26.8066  26.8067  26.9539  28.2027  28.3837  28.3837
    31.4899  31.8519  31.8521  32.5429  32.9231  32.9232  33.1843  34.3129
    34.5610  36.0075  36.3588  36.3589  36.4844  36.9152  36.9153  37.6241
    37.6939  38.6947  38.7582  38.7582  39.1042  39.1764  40.0387  41.1662
    41.2242  41.2242  41.2673  41.6485  41.6486  42.8727  42.9580  42.9581
    43.2782  44.0944  47.6056  47.9847  48.0767  48.2752  48.2753  49.3526
    49.3527  49.4628  50.0010  51.4794  51.6266  51.6267  52.3535  52.7910
    52.8449  52.8449  54.7507  54.7510  55.3582  55.7069  56.8851  57.1017

          k = 0.0000 0.3839-0.0000 ( 10722 PWs)   bands (ev):

    -8.5340  -6.8443  -5.3949  -5.3949  -4.5631  -3.6101  -3.3656  -3.3655
     0.9321   2.3150   2.3151   2.5718   3.0451   3.8387   3.8387   4.1664
     4.1664   5.2489   5.2490   5.7052   6.7626   6.8054   7.2960   7.2961
     7.7893   7.7894   8.1706   8.5977   9.2365   9.5752  10.3562  10.6354
    17.9104  17.9105  18.2152  18.9467  20.0827  20.4386  20.6290  20.6779
    20.6782  21.7108  22.0776  22.6450  22.7501  22.7502  22.9977  23.1702
    23.9778  23.9779  24.1358  24.6908  24.7416  24.7416  26.0136  26.0137
    26.4642  26.5076  26.9386  27.0565  27.0566  27.5713  27.7123  27.7125
    28.6898  28.7166  29.9106  29.9106  31.5598  31.5600  32.1928  32.2620
    32.7083  34.3113  34.4365  34.4365  35.2736  35.2736  36.0608  36.3066
    37.7149  37.9197  37.9197  38.9850  39.9352  39.9575  41.0529  41.1233
    41.1234  41.6248  43.8544  43.8545  45.6140  45.6140  46.2135  46.2689
    47.1544  47.4553  47.7830  47.8390  47.8391  48.0708  49.1180  49.1205
    49.6943  50.7954  50.7957  51.2524  51.2524  51.3676  51.4131  52.2561
    52.5871  53.3314  53.3314  53.5851  53.5852  53.6539  54.6962  55.8165

          k = 0.0000 0.3839 0.4016 ( 10722 PWs)   bands (ev):

    -7.8921  -6.2660  -6.1199  -4.9367  -4.9366  -4.7504  -3.9061  -3.9060
     1.8567   1.8568   2.7059   2.8535   2.8535   3.5060   4.1922   5.0423
     5.0424   5.6001   6.3296   6.3296   6.8957   6.8957   7.2695   7.3604
     7.6189   8.3518   8.3518   8.4565   8.6769   8.7071   8.9983   9.8820
    17.9916  18.8476  18.8476  19.0946  19.2293  20.1731  20.1732  20.5886
    21.6291  21.6575  21.7442  21.7443  21.8900  22.6630  22.8351  22.8352
    23.2990  23.3960  23.5895  23.6764  23.6766  24.3389  25.7353  25.7354
    25.7475  25.9558  26.1712  26.8154  26.8154  27.4443  27.7791  27.7792
    30.3329  30.8466  31.1638  31.1639  32.1459  32.1460  32.8896  33.3332
    34.1814  35.5509  35.5509  35.7556  36.1859  36.4841  36.4849  36.4849
    37.9910  38.1788  38.5432  38.5432  39.3296  40.1541  40.3238  40.9130
    40.9131  41.5732  41.8973  42.5196  42.5197  43.9003  43.9004  44.1040
    44.4077  46.4255  48.5689  49.3270  49.6293  49.7914  49.7914  50.1995
    50.7621  50.9372  50.9373  51.0998  51.6320  51.6322  52.2780  52.3628
    52.3628  52.8821  53.3818  54.4117  54.9319  54.9983  54.9984  55.7841

          k =-0.0000-0.5758 0.0000 ( 10722 PWs)   bands (ev):

    -7.8079  -7.8079  -5.4784  -5.4784  -4.0798  -4.0798  -3.2608  -3.2608
     1.6471   1.6472   3.0541   3.0541   3.2532   3.2532   3.9504   3.9504
     4.7958   4.7958   5.5124   5.5124   7.0945   7.0945   7.4295   7.4295
     7.4700   7.4700   7.4957   7.4957   9.6110   9.6110  10.0806  10.0806
    17.5419  17.5419  18.5384  18.5384  20.6007  20.6007  21.3258  21.3258
    22.1677  22.1677  22.3175  22.3175  23.0644  23.0645  23.5487  23.5487
    23.9352  23.9352  25.0506  25.0506  25.2992  25.2992  25.9686  25.9686
    26.1139  26.1139  26.1571  26.1571  26.5927  26.5927  27.7046  27.7046
    28.0529  28.0529  29.8260  29.8260  30.6977  30.6977  32.1362  32.1362
    32.7296  32.7296  34.2316  34.2316  35.1715  35.1715  36.3747  36.3747
    37.8528  37.8528  39.0195  39.0195  40.0405  40.0405  42.8791  42.8791
    43.2162  43.2162  44.0808  44.0808  44.3288  44.3288  44.3849  44.3849
    46.3337  46.3337  47.5733  47.5733  48.3205  48.3205  49.1344  49.1344
    50.4485  50.4485  51.5483  51.5483  51.7565  51.7565  52.3202  52.3202
    52.6674  52.6674  53.4323  53.4323  53.5429  53.5429  54.1237  54.1237

          k =-0.0000-0.5758 0.4016 ( 10718 PWs)   bands (ev):

    -7.1871  -7.1871  -5.4980  -5.4980  -5.0029  -5.0029  -3.8952  -3.8952
     2.4342   2.4342   3.0740   3.0740   3.6464   3.6464   4.6135   4.6135
     5.6578   5.6578   5.7008   5.7008   6.1974   6.1975   6.7812   6.7812
     7.9655   7.9656   8.4110   8.4110   8.6147   8.6147   9.2572   9.2572
    18.5121  18.5121  19.4679  19.4679  19.8692  19.8692  20.1360  20.1360
    21.9231  21.9231  22.5554  22.5554  22.6113  22.6113  22.8742  22.8742
    23.5916  23.5916  24.0995  24.0995  24.9547  24.9547  25.2020  25.2020
    25.4469  25.4469  26.4377  26.4377  26.7392  26.7392  26.8926  26.8926
    29.9624  29.9624  30.9357  30.9357  31.7114  31.7114  32.8360  32.8360
    34.4871  34.4871  35.2541  35.2541  36.2482  36.2482  36.3167  36.3167
    38.0822  38.0822  38.4716  38.4716  39.4833  39.4833  40.7012  40.7012
    41.4551  41.4551  43.7289  43.7289  43.8187  43.8187  43.9965  43.9965
    46.9104  46.9104  48.1034  48.1034  49.6627  49.6627  50.5939  50.5939
    50.6572  50.6572  50.8439  50.8439  52.5414  52.5414  52.7145  52.7145
    52.7939  52.7939  53.3194  53.3194  54.6498  54.6498  55.5939  55.5939

          k = 0.1662 0.2879-0.0000 ( 10725 PWs)   bands (ev):

    -8.6822  -6.2053  -6.2053  -4.7155  -4.6703  -3.6318  -3.4406  -3.4406
     0.7855   2.0008   2.4689   2.4689   3.2023   3.2023   3.7675   4.7132
     4.7656   4.8271   4.8271   6.2035   6.2035   6.6475   7.3882   7.6337
     7.9965   7.9965   8.1587   8.9543   8.9544   9.8187  10.5117  10.6644
    17.6335  18.6259  18.6259  19.3468  19.5401  19.5401  20.0484  20.4070
    20.6101  21.8409  21.8409  22.0255  22.9551  23.0403  23.1473  23.1473
    23.3277  23.7171  23.7171  24.2221  24.5236  25.3611  25.5134  26.5145
    26.5145  26.7611  26.9596  26.9596  27.0969  27.8170  27.8170  28.2776
    29.1465  29.4499  29.4499  30.3814  31.2053  31.9381  31.9381  32.0979
    33.9837  34.4020  34.6601  35.4159  35.4160  35.7508  35.7508  36.1124
    37.5894  37.5970  37.8062  37.8062  39.6689  39.6689  39.8562  40.6682
    41.3349  41.6445  43.3799  45.6091  45.6091  45.7406  46.1566  46.3451
    46.3451  47.2561  47.4044  47.4044  48.2371  49.0523  49.5829  49.5829
    49.8466  50.3328  50.3328  51.7284  51.7284  51.9612  52.0840  52.0903
    52.1222  52.5622  53.4715  53.6443  53.6443  54.6190  54.6190  55.2421

          k = 0.1662 0.2879 0.4016 ( 10715 PWs)   bands (ev):

    -8.0367  -6.2506  -5.6692  -5.6692  -4.3808  -4.3295  -4.3294  -3.7987
     1.4676   2.1117   2.1117   2.2942   3.4086   3.4086   3.4266   4.8311
     5.7960   5.7960   6.3364   6.7104   6.7104   7.0401   7.7193   7.8976
     7.8977   7.9181   8.1361   8.5087   8.5087   8.6906   9.3972   9.9292
    18.2699  18.2699  18.6427  19.2495  19.2495  19.7501  20.2378  20.7387
    21.1128  21.6512  21.6964  21.6964  21.7355  22.4114  22.4584  22.9337
    22.9337  23.2258  23.3843  23.3843  23.7553  24.1451  25.8906  25.8906
    25.9146  26.0007  26.5448  26.5448  27.0330  27.7402  27.7402  28.3426
    30.8605  30.8605  31.5343  31.7176  32.0029  32.5513  32.6451  32.6451
    35.3018  35.6394  35.8450  35.8450  36.0699  36.1854  37.0906  37.0906
    37.9282  37.9282  38.4374  38.6574  39.3016  39.7891  40.8124  40.8124
    40.8843  41.0303  41.6841  41.6841  42.5472  43.7094  43.8476  43.8476
    44.4662  45.6356  47.8411  49.3891  49.4788  49.4788  49.9963  49.9963
    50.1731  50.3017  50.7591  51.1457  51.1457  52.2448  52.2448  52.5988
    52.7133  53.3365  53.8148  53.8148  54.3759  55.6315  55.6315  56.3647

          k = 0.1662 0.4799-0.0000 ( 10733 PWs)   bands (ev):

    -8.0950  -7.2468  -6.4452  -4.5436  -4.2595  -3.7649  -3.4764  -3.4246
     1.3659   2.1968   2.2208   2.9838   3.3380   3.6376   3.9149   4.4946
     4.5098   4.9449   5.7356   6.0627   6.3765   6.3998   6.6872   7.1034
     7.1261   8.2249   8.3699   8.5062   9.0753   9.4174   9.9368  10.0288
    16.8559  18.6664  18.8728  19.2051  20.2987  20.4204  20.7097  20.9265
    21.5012  22.1954  22.4138  22.5539  22.9733  23.2921  23.5097  23.6856
    23.8027  24.2764  24.3813  25.1018  25.3695  25.4711  25.7979  25.8154
    25.8403  26.4720  26.4932  26.5060  26.7922  27.1765  27.2222  27.4722
    28.2022  28.3132  29.0658  30.4992  30.6148  30.6460  31.0088  31.3817
    33.0650  33.8285  34.3935  34.7404  35.3785  35.7321  36.1459  36.3730
    37.4084  38.6584  38.6878  39.3470  39.8752  39.9556  40.5236  41.0827
    42.1376  43.8956  44.0118  44.0365  44.6109  44.9241  45.8951  45.9197
    46.0692  46.9169  47.1215  48.2146  48.5069  48.7247  49.7146  49.8803
    49.9041  50.5539  50.8672  50.8864  51.0614  51.5993  51.9507  52.4123
    52.6702  52.9876  53.0139  53.7754  53.9691  53.9917  54.7593  54.8819

          k = 0.1662 0.4799 0.4016 ( 10722 PWs)   bands (ev):

    -7.4649  -6.6476  -5.8878  -5.7390  -5.0446  -4.4540  -4.2219  -3.6579
     2.0684   2.6452   2.8569   3.3561   3.6820   3.7303   4.0303   4.9790
     5.1678   5.6176   5.6355   6.0773   6.3963   6.7746   7.1802   7.2194
     7.2646   7.9070   8.0848   8.3856   8.6248   8.7628   8.8184   9.2279
    18.6787  19.0597  19.2501  19.3212  19.9075  20.1472  20.6014  20.8245
    21.4878  21.6846  21.7783  21.8704  22.0092  22.6313  23.1658  23.1915
    23.4591  23.4755  23.8343  24.0757  24.9708  25.0466  25.0899  25.2943
    25.4961  25.8944  26.0359  26.2781  26.8477  26.9571  27.1374  27.8048
    30.1779  30.4664  30.6821  30.8866  31.3543  31.7481  31.8364  32.1034
    34.9232  35.2739  35.3702  35.5392  35.6163  36.2311  36.4869  36.6364
    37.8017  37.9507  38.2415  38.5212  39.6579  40.1220  40.4699  40.7235
    41.3315  41.9479  42.6986  42.8143  43.8471  44.2980  44.3132  44.3499
    46.4093  47.6708  47.7579  48.6677  48.8096  49.6907  50.0440  50.5937
    50.6379  51.1363  51.3004  51.4676  52.3036  52.3356  52.4247  52.7122
    52.8607  53.1355  53.4398  53.6812  53.8091  54.8710  54.9509  55.5221

          k = 0.3325 0.5758-0.0000 ( 10785 PWs)   bands (ev):

    -7.3838  -7.3838  -7.3838  -3.8563  -3.8562  -3.8255  -3.8255  -3.8255
     2.0311   2.0666   2.0666   2.0666   4.0305   4.0305   4.6380   4.6380
     4.6380   5.5693   5.5693   5.5693   5.8011   5.8227   5.8227   7.5931
     7.5931   7.5931   9.0457   9.0458   9.0458   9.2678   9.2678   9.2678
    16.4505  19.6154  19.6154  19.6155  20.1722  20.1725  20.1725  21.5133
    21.5133  21.5133  22.7588  22.7590  22.7590  24.1056  24.1056  24.1056
    24.5454  24.5456  24.5457  24.6455  24.6456  25.1049  25.5794  25.5796
    26.3103  26.3104  26.6700  26.6700  26.6700  27.0184  27.0184  27.0185
    28.2922  28.2922  28.2922  30.1064  30.1064  30.1066  31.8300  31.8385
    32.0035  32.0036  35.5007  35.5007  35.5008  36.0734  36.0734  36.0734
    37.3126  39.4322  39.4322  39.4322  40.4664  40.4664  40.4664  41.4127
    41.4128  41.4128  41.5193  45.4464  45.4464  45.4465  45.9027  45.9028
    47.0217  47.0217  47.0218  48.3170  49.1070  49.1070  49.1075  49.5318
    51.0752  51.0754  51.0754  51.1004  51.1005  51.1005  52.6378  52.6378
    52.6379  52.9990  52.9991  53.9242  53.9242  53.9242  54.1037  54.1039

          k = 0.3325 0.5758 0.4016 ( 10713 PWs)   bands (ev):

    -6.7782  -6.7782  -6.7782  -5.1489  -5.1488  -5.1488  -3.7472  -3.7472
     2.6940   2.6940   2.7214   3.6360   3.6360   3.6360   4.5043   5.4000
     5.4000   5.4000   5.8133   5.8133   5.8133   6.8413   6.8413   6.8413
     7.6991   7.6991   8.1398   8.1399   8.1399   8.7697   8.7697   8.7697
    19.0414  19.5398  19.5399  19.5399  20.4524  20.4525  20.4525  21.2871
    21.2871  21.6993  21.6995  21.6995  22.2911  22.2913  22.2913  23.5688
    23.8090  23.8090  23.8091  24.4440  24.4440  24.4440  25.6070  25.6070
    25.9865  25.9866  25.9866  26.3717  26.3717  26.3718  27.7054  27.7054
    30.3040  30.5649  30.5649  30.5649  30.7739  31.1876  31.1876  31.1877
    34.9246  34.9246  35.6383  35.6383  35.6384  36.2411  36.2411  36.2412
    38.0113  38.0114  38.0114  38.5254  40.2238  40.2238  40.2238  40.3180
    43.0614  43.0614  43.0614  43.2138  43.2138  43.2138  44.4373  44.4374
    48.1731  48.1733  48.1733  48.2875  48.2877  48.2877  50.4388  50.4388
    50.4394  51.6439  51.8739  51.8739  51.8740  52.7816  52.7816  52.7820
    53.2778  53.2778  53.2779  53.5259  53.5259  54.0998  54.2036  54.2037

          k =-0.1662 0.0960-0.0000 ( 10729 PWs)   bands (ev):

    -8.9810  -5.7576  -5.1912  -5.1912  -4.8937  -3.6190  -3.6190  -3.5089
     0.4892   1.8702   1.8702   1.9671   3.5553   3.6524   3.6524   4.2851
     4.2851   4.2925   5.8291   5.8291   6.4002   6.9924   6.9924   7.4768
     8.4228   8.7078   8.7078   8.8321   9.2338  10.6501  10.8036  11.0676
    18.0248  18.6055  18.6055  18.9027  18.9027  19.3521  19.4508  19.9150
    20.0619  21.2182  21.8302  21.9468  21.9468  22.4184  22.7994  23.1993
    23.4383  23.4384  23.5179  23.5551  24.2148  24.2148  25.8115  25.8115
    26.2023  27.1320  27.3428  27.4378  27.4378  28.5857  28.6851  28.6851
    30.2371  30.4733  30.5887  30.5887  32.5122  32.7090  32.7090  32.8317
    33.8926  34.9051  34.9051  35.3657  35.5119  35.6754  35.6754  36.5259
    36.5333  37.2980  37.9337  37.9337  38.6729  39.6131  39.6669  39.7670
    39.8775  39.8775  44.6000  44.6001  44.8970  45.6960  45.6960  46.4036
    46.5236  47.4476  48.0971  48.0971  48.5034  48.7521  49.0767  49.5106
    50.2533  50.2533  51.1890  51.5944  51.5944  51.8438  52.6909  53.1551
    53.1690  53.1690  53.3588  53.3588  54.0356  54.0505  54.6664  54.6666

          k = 0.0000 0.1919-0.4016 ( 10732 PWs)   bands (ev):

    -8.3289  -6.5173  -5.2692  -4.7806  -4.7805  -4.1346  -3.9513  -3.9513
     1.2499   1.2500   1.4794   2.2248   2.2249   2.6615   3.2393   5.9899
     5.9900   6.1176   6.7809   6.7810   6.9651   7.5607   7.5608   7.9351
     8.1834   8.2393   8.2394   8.3414   8.9077   9.3016  10.0505  10.3997
    17.7535  18.0851  18.0852  18.4336  18.8279  18.8281  19.9746  20.7313
    20.8303  21.2097  21.5726  21.8598  21.8598  21.9857  22.4029  22.4030
    22.4884  22.6291  23.2451  23.2452  23.4149  23.6228  25.8627  25.9883
    26.4188  26.4188  26.8066  26.8067  26.9539  28.2027  28.3837  28.3837
    31.4899  31.8519  31.8521  32.5429  32.9231  32.9232  33.1843  34.3129
    34.5610  36.0075  36.3588  36.3589  36.4844  36.9152  36.9153  37.6241
    37.6939  38.6947  38.7582  38.7582  39.1042  39.1764  40.0387  41.1662
    41.2242  41.2242  41.2673  41.6485  41.6486  42.8727  42.9580  42.9581
    43.2782  44.0944  47.6056  47.9847  48.0767  48.2752  48.2753  49.3526
    49.3527  49.4628  50.0010  51.4794  51.6266  51.6267  52.3535  52.7910
    52.8449  52.8449  54.7507  54.7510  55.3582  55.7069  56.8851  57.1017

          k =-0.1662 0.0960 0.4016 ( 10732 PWs)   bands (ev):

    -8.3289  -6.5173  -5.2693  -4.7805  -4.7805  -4.1347  -3.9513  -3.9513
     1.2499   1.2499   1.4793   2.2249   2.2249   2.6614   3.2393   5.9899
     5.9899   6.1176   6.7809   6.7809   6.9653   7.5607   7.5607   7.9351
     8.1834   8.2393   8.2393   8.3416   8.9076   9.3018  10.0504  10.3998
    17.7536  18.0851  18.0851  18.4338  18.8279  18.8279  19.9746  20.7313
    20.8304  21.2097  21.5727  21.8597  21.8597  21.9857  22.4029  22.4029
    22.4884  22.6291  23.2451  23.2451  23.4148  23.6229  25.8627  25.9884
    26.4187  26.4187  26.8067  26.8067  26.9539  28.2027  28.3837  28.3837
    31.4898  31.8520  31.8520  32.5428  32.9232  32.9232  33.1842  34.3129
    34.5613  36.0074  36.3589  36.3589  36.4844  36.9153  36.9153  37.6240
    37.6940  38.6946  38.7582  38.7582  39.1040  39.1766  40.0386  41.1661
[...]
    30.4753  30.9762  31.3068  31.3068  32.2917  32.2917  33.0383  33.4746
    34.3009  35.7212  35.7212  35.8786  36.3691  36.6639  36.6639  36.6665
    38.1772  38.3580  38.7013  38.7013  39.4801  40.3037  40.4870  41.0816
    41.0816  41.7505  42.0548  42.6859  42.6859  44.0668  44.0668  44.2819
    44.5681  46.6103  48.7655  49.5039  49.8230  49.9763  49.9763  50.3832
    50.9471  51.1239  51.1239  51.2955  51.8276  51.8276  52.4720  52.5611
    52.5611  53.0991  53.6140  54.6009  55.1375  55.2263  55.2263  55.9976

          k = 0.4994-0.2883-0.0000 ( 10762 PWs)   bands (ev):

    -7.7798  -7.7798  -5.4398  -5.4398  -4.0211  -4.0211  -3.2029  -3.2029
     1.6866   1.6866   3.0946   3.0946   3.3065   3.3065   3.9964   3.9964
     4.8469   4.8469   5.5802   5.5802   7.1612   7.1612   7.4843   7.4843
     7.5442   7.5442   7.5551   7.5551   9.6830   9.6830  10.1581  10.1581
    17.6251  17.6251  18.6363  18.6363  20.7250  20.7250  21.4282  21.4282
    22.3170  22.3170  22.4330  22.4330  23.2099  23.2099  23.6761  23.6761
    24.0544  24.0544  25.2045  25.2045  25.4296  25.4296  26.1418  26.1418
    26.2526  26.2526  26.2949  26.2949  26.7395  26.7395  27.8458  27.8458
    28.1894  28.1894  29.9678  29.9679  30.8343  30.8343  32.2810  32.2810
    32.8370  32.8370  34.3904  34.3904  35.3330  35.3330  36.5545  36.5545
    38.0113  38.0113  39.1953  39.1953  40.2215  40.2215  43.0310  43.0310
    43.3953  43.3953  44.2298  44.2298  44.4990  44.4990  44.5355  44.5355
    46.5215  46.5215  47.7652  47.7652  48.5200  48.5200  49.3440  49.3440
    50.6469  50.6469  51.7392  51.7392  51.9493  51.9493  52.5198  52.5198
    52.8716  52.8716  53.6557  53.6557  53.7580  53.7580  54.3233  54.3233

          k = 0.4994-0.2883 0.4026 ( 10780 PWs)   bands (ev):

    -7.1553  -7.1553  -5.4541  -5.4541  -4.9606  -4.9606  -3.8433  -3.8433
     2.4800   2.4800   3.1226   3.1226   3.7010   3.7010   4.6626   4.6626
     5.7165   5.7165   5.7547   5.7547   6.2611   6.2611   6.8481   6.8481
     8.0244   8.0245   8.4828   8.4828   8.6898   8.6898   9.3269   9.3269
    18.6161  18.6161  19.5705  19.5705  19.9736  19.9736  20.2657  20.2657
    22.0482  22.0482  22.6885  22.6885  22.7235  22.7235  22.9851  22.9851
    23.7189  23.7189  24.2234  24.2234  25.0832  25.0832  25.3556  25.3556
    25.5879  25.5879  26.5947  26.5947  26.8841  26.8841  27.0438  27.0438
    30.0990  30.0990  31.0775  31.0775  31.8566  31.8566  32.9786  32.9786
    34.6057  34.6057  35.4238  35.4238  36.4320  36.4320  36.4957  36.4957
    38.2676  38.2676  38.6314  38.6314  39.6325  39.6325  40.8709  40.8709
    41.6275  41.6275  43.8946  43.8946  43.9882  43.9882  44.1642  44.1642
    47.0781  47.0781  48.2843  48.2843  49.8494  49.8494  50.7915  50.7915
    50.8545  50.8545  51.0417  51.0417  52.7391  52.7391  52.9123  52.9123
    53.0038  53.0038  53.5223  53.5223  54.8577  54.8577  55.8075  55.8075

          k =-0.1665 0.2883 0.0000 ( 10779 PWs)   bands (ev):

    -8.6573  -6.1703  -6.1703  -4.6708  -4.6133  -3.5813  -3.3825  -3.3825
     0.8227   2.0466   2.5129   2.5129   3.2495   3.2495   3.8291   4.7631
     4.8164   4.8901   4.8901   6.2572   6.2572   6.7017   7.4468   7.7038
     8.0579   8.0579   8.2172   9.0283   9.0283   9.8977  10.5909  10.7436
    17.7189  18.7213  18.7213  19.4529  19.6381  19.6381  20.1468  20.5423
    20.7097  21.9540  21.9540  22.1479  23.0796  23.1864  23.3189  23.3189
    23.4495  23.8389  23.8389  24.3964  24.6524  25.4920  25.6878  26.6837
    26.6837  26.9107  27.1028  27.1028  27.2357  27.9604  27.9604  28.4343
    29.2535  29.5854  29.5854  30.5099  31.3285  32.0844  32.0844  32.2510
    34.1452  34.5385  34.8118  35.5763  35.5763  35.9071  35.9071  36.2819
    37.7307  37.7516  37.9633  37.9633  39.8372  39.8372  40.0375  40.8337
    41.4746  41.8018  43.5608  45.7949  45.7949  45.9070  46.3523  46.5177
    46.5177  47.4378  47.5943  47.5943  48.4398  49.2518  49.7846  49.7846
    50.0538  50.5078  50.5078  51.9154  51.9154  52.1641  52.2753  52.3009
    52.3559  52.7432  53.6694  53.8320  53.8320  54.8227  54.8227  55.4699

          k =-0.1665 0.2883-0.4026 ( 10772 PWs)   bands (ev):

    -8.0080  -6.2097  -5.6305  -5.6305  -4.3333  -4.2799  -4.2799  -3.7475
     1.5080   2.1547   2.1547   2.3411   3.4621   3.4621   3.4840   4.8787
     5.8563   5.8563   6.3941   6.7667   6.7667   7.1070   7.7937   7.9628
     7.9628   7.9806   8.2064   8.5804   8.5804   8.7541   9.4707  10.0014
    18.3781  18.3781  18.7515  19.3512  19.3512  19.8571  20.3486  20.8436
    21.2225  21.7629  21.8177  21.8177  21.8556  22.5282  22.5886  23.0546
    23.0546  23.3518  23.5180  23.5180  23.8841  24.2998  26.0377  26.0377
    26.0753  26.1429  26.6881  26.6881  27.1845  27.8975  27.8975  28.5006
    31.0043  31.0043  31.6615  31.8617  32.1455  32.6831  32.7926  32.7926
    35.4368  35.8029  36.0155  36.0155  36.2529  36.3573  37.2592  37.2592
    38.0884  38.0884  38.6227  38.8174  39.4589  39.9382  40.9755  40.9755
    41.0523  41.1888  41.8557  41.8557  42.7144  43.8771  44.0182  44.0182
    44.6279  45.8147  48.0386  49.5813  49.6547  49.6547  50.1780  50.1780
    50.3600  50.4775  50.9566  51.3421  51.3421  52.4423  52.4423  52.7894
    52.9319  53.5444  54.0341  54.0341  54.6107  55.8477  55.8477  56.5863

          k = 0.1665-0.2883-0.4026 ( 10772 PWs)   bands (ev):

    -8.0080  -6.2097  -5.6305  -5.6305  -4.3333  -4.2799  -4.2799  -3.7475
     1.5080   2.1547   2.1547   2.3411   3.4621   3.4621   3.4840   4.8787
     5.8563   5.8563   6.3941   6.7667   6.7667   7.1070   7.7937   7.9628
     7.9628   7.9806   8.2064   8.5804   8.5804   8.7541   9.4707  10.0014
    18.3781  18.3781  18.7515  19.3512  19.3512  19.8571  20.3486  20.8436
    21.2225  21.7629  21.8177  21.8177  21.8556  22.5282  22.5886  23.0546
    23.0546  23.3518  23.5180  23.5180  23.8841  24.2998  26.0377  26.0377
    26.0753  26.1429  26.6881  26.6881  27.1845  27.8975  27.8975  28.5006
    31.0043  31.0043  31.6615  31.8617  32.1455  32.6831  32.7926  32.7926
    35.4368  35.8029  36.0155  36.0155  36.2529  36.3573  37.2592  37.2592
    38.0884  38.0884  38.6227  38.8174  39.4589  39.9382  40.9755  40.9755
    41.0523  41.1888  41.8557  41.8557  42.7144  43.8771  44.0182  44.0182
    44.6279  45.8147  48.0386  49.5813  49.6547  49.6547  50.1780  50.1780
    50.3600  50.4775  50.9566  51.3421  51.3421  52.4423  52.4423  52.7894
    52.9319  53.5444  54.0341  54.0341  54.6107  55.8477  55.8477  56.5863

          k =-0.1665 0.4805 0.0000 ( 10790 PWs)   bands (ev):

    -8.0680  -7.2166  -6.4115  -4.4988  -4.2013  -3.7055  -3.4231  -3.3650
     1.4046   2.2378   2.2583   3.0269   3.3870   3.6941   3.9640   4.5567
     4.5597   4.9965   5.7898   6.1219   6.4443   6.4598   6.7473   7.1684
     7.1824   8.2949   8.4345   8.5813   9.1433   9.4927  10.0110  10.1059
    16.9360  18.7562  18.9706  19.3070  20.4044  20.5290  20.8160  21.0557
    21.6199  22.3324  22.5423  22.7036  23.0848  23.4246  23.6450  23.8149
    23.9525  24.4181  24.5155  25.2533  25.5402  25.6057  25.9372  25.9529
    25.9733  26.6123  26.6511  26.6578  26.9351  27.3325  27.3692  27.6081
    28.3224  28.4450  29.2058  30.6329  30.7450  30.7830  31.1435  31.5274
    33.2179  33.9800  34.5262  34.8750  35.5462  35.8920  36.3208  36.5546
    37.5622  38.8238  38.8582  39.4994  40.0516  40.1363  40.6785  41.2407
    42.3165  44.0584  44.1683  44.1869  44.7651  45.1143  46.0814  46.0893
    46.2572  47.1063  47.3158  48.4124  48.7089  48.9017  49.9107  50.0762
    50.0949  50.7310  51.0597  51.0684  51.2703  51.8196  52.1495  52.6194
    52.8766  53.2018  53.2157  53.9842  54.1635  54.2087  54.9519  55.0920

          k =-0.3329 0.3844 0.0000 ( 10790 PWs)   bands (ev):

    -8.0680  -7.2166  -6.4115  -4.4988  -4.2013  -3.7055  -3.4231  -3.3650
     1.4046   2.2378   2.2583   3.0269   3.3870   3.6941   3.9640   4.5567
     4.5597   4.9965   5.7898   6.1219   6.4443   6.4598   6.7473   7.1684
     7.1824   8.2949   8.4345   8.5813   9.1433   9.4927  10.0110  10.1059
    16.9360  18.7562  18.9706  19.3070  20.4044  20.5290  20.8160  21.0557
    21.6199  22.3324  22.5423  22.7036  23.0848  23.4246  23.6450  23.8149
    23.9525  24.4181  24.5155  25.2533  25.5402  25.6057  25.9372  25.9529
    25.9733  26.6123  26.6511  26.6578  26.9351  27.3325  27.3692  27.6081
    28.3224  28.4450  29.2058  30.6329  30.7450  30.7830  31.1435  31.5274
    33.2179  33.9800  34.5262  34.8750  35.5462  35.8920  36.3207  36.5546
    37.5622  38.8238  38.8582  39.4994  40.0516  40.1363  40.6785  41.2407
    42.3165  44.0584  44.1683  44.1869  44.7651  45.1143  46.0814  46.0893
    46.2572  47.1063  47.3158  48.4124  48.7089  48.9017  49.9107  50.0762
    50.0949  50.7310  51.0597  51.0684  51.2703  51.8196  52.1495  52.6194
    52.8766  53.2018  53.2157  53.9842  54.1635  54.2087  54.9519  55.0920

          k =-0.1665 0.4805-0.4026 ( 10772 PWs)   bands (ev):

    -7.4342  -6.6135  -5.8503  -5.6961  -4.9986  -4.4051  -4.1741  -3.6051
     2.1111   2.6930   2.9043   3.4066   3.7386   3.7747   4.0853   5.0384
     5.2201   5.6722   5.6959   6.1356   6.4560   6.8404   7.2369   7.2873
     7.3277   7.9676   8.1551   8.4540   8.6982   8.8355   8.8927   9.2979
    18.7868  19.1614  19.3587  19.4366  20.0122  20.2582  20.7087  20.9564
    21.5966  21.8171  21.8980  21.9800  22.1251  22.7468  23.2862  23.3108
    23.5886  23.5982  23.9658  24.2146  25.0989  25.1902  25.2358  25.4415
    25.6319  26.0367  26.1936  26.4220  27.0025  27.1083  27.2898  27.9595
    30.3173  30.5987  30.8240  31.0210  31.4904  31.8916  31.9677  32.2419
    35.0921  35.4139  35.5233  35.7092  35.7943  36.4017  36.6488  36.8090
    37.9806  38.1338  38.4035  38.6824  39.8189  40.2834  40.6407  40.8924
    41.4896  42.1203  42.8594  42.9818  44.0169  44.4647  44.4840  44.5209
    46.5878  47.8481  47.9352  48.8631  48.9922  49.8794  50.2281  50.7806
    50.8262  51.3324  51.4916  51.6639  52.5066  52.5476  52.6258  52.9168
    53.0530  53.3531  53.6467  53.8772  54.0068  55.0769  55.1781  55.7443

          k = 0.1665-0.4805-0.4026 ( 10772 PWs)   bands (ev):

    -7.4342  -6.6135  -5.8503  -5.6961  -4.9986  -4.4051  -4.1741  -3.6051
     2.1111   2.6930   2.9043   3.4066   3.7386   3.7747   4.0853   5.0384
     5.2201   5.6722   5.6959   6.1356   6.4560   6.8404   7.2369   7.2873
     7.3277   7.9676   8.1551   8.4540   8.6982   8.8355   8.8927   9.2979
    18.7868  19.1614  19.3587  19.4366  20.0122  20.2582  20.7087  20.9564
    21.5966  21.8171  21.8980  21.9800  22.1251  22.7468  23.2862  23.3108
    23.5886  23.5982  23.9658  24.2146  25.0989  25.1902  25.2358  25.4415
    25.6319  26.0367  26.1936  26.4220  27.0025  27.1083  27.2898  27.9595
    30.3173  30.5987  30.8240  31.0210  31.4904  31.8916  31.9677  32.2419
    35.0921  35.4139  35.5233  35.7092  35.7943  36.4017  36.6488  36.8090
    37.9806  38.1338  38.4035  38.6824  39.8189  40.2834  40.6407  40.8924
    41.4896  42.1202  42.8594  42.9818  44.0169  44.4647  44.4840  44.5209
    46.5878  47.8481  47.9352  48.8631  48.9922  49.8794  50.2281  50.7806
    50.8262  51.3324  51.4916  51.6639  52.5066  52.5476  52.6258  52.9168
    53.0530  53.3531  53.6467  53.8772  54.0068  55.0769  55.1781  55.7443

          k =-0.3329 0.3844 0.4026 ( 10772 PWs)   bands (ev):

    -7.4342  -6.6135  -5.8503  -5.6961  -4.9986  -4.4051  -4.1741  -3.6051
     2.1111   2.6930   2.9043   3.4066   3.7386   3.7747   4.0853   5.0384
     5.2201   5.6722   5.6959   6.1356   6.4560   6.8404   7.2369   7.2873
     7.3277   7.9676   8.1551   8.4540   8.6982   8.8355   8.8927   9.2979
    18.7868  19.1614  19.3587  19.4366  20.0122  20.2582  20.7087  20.9564
    21.5966  21.8171  21.8980  21.9800  22.1251  22.7468  23.2862  23.3108
    23.5886  23.5982  23.9658  24.2146  25.0989  25.1902  25.2358  25.4415
    25.6319  26.0367  26.1936  26.4220  27.0025  27.1083  27.2898  27.9595
    30.3173  30.5987  30.8240  31.0210  31.4904  31.8916  31.9677  32.2419
    35.0921  35.4139  35.5233  35.7092  35.7943  36.4017  36.6488  36.8090
    37.9806  38.1338  38.4035  38.6824  39.8189  40.2834  40.6407  40.8924
    41.4896  42.1202  42.8594  42.9818  44.0169  44.4647  44.4840  44.5209
    46.5878  47.8481  47.9352  48.8631  48.9922  49.8794  50.2281  50.7806
    50.8262  51.3324  51.4916  51.6639  52.5066  52.5476  52.6258  52.9168
    53.0530  53.3531  53.6467  53.8772  54.0068  55.0769  55.1781  55.7443

          k = 0.3329-0.3844 0.4026 ( 10772 PWs)   bands (ev):

    -7.4342  -6.6135  -5.8503  -5.6961  -4.9986  -4.4051  -4.1741  -3.6051
     2.1111   2.6930   2.9043   3.4066   3.7386   3.7747   4.0853   5.0384
     5.2201   5.6722   5.6959   6.1356   6.4560   6.8404   7.2369   7.2873
     7.3277   7.9676   8.1551   8.4540   8.6982   8.8355   8.8927   9.2979
    18.7868  19.1614  19.3587  19.4366  20.0122  20.2582  20.7087  20.9564
    21.5966  21.8171  21.8980  21.9800  22.1251  22.7468  23.2862  23.3108
    23.5886  23.5982  23.9658  24.2146  25.0989  25.1902  25.2358  25.4415
    25.6319  26.0367  26.1936  26.4220  27.0025  27.1083  27.2898  27.9595
    30.3173  30.5987  30.8240  31.0210  31.4904  31.8916  31.9677  32.2419
    35.0921  35.4139  35.5233  35.7092  35.7943  36.4017  36.6488  36.8090
    37.9806  38.1338  38.4035  38.6824  39.8189  40.2834  40.6407  40.8924
    41.4896  42.1202  42.8594  42.9818  44.0169  44.4647  44.4840  44.5209
    46.5878  47.8481  47.9352  48.8631  48.9922  49.8794  50.2281  50.7806
    50.8262  51.3324  51.4916  51.6639  52.5066  52.5476  52.6258  52.9168
    53.0530  53.3531  53.6467  53.8772  54.0068  55.0769  55.1781  55.7443

          k =-0.3329-0.3844-0.4026 ( 10772 PWs)   bands (ev):

    -7.4342  -6.6135  -5.8503  -5.6961  -4.9986  -4.4051  -4.1741  -3.6051
     2.1111   2.6930   2.9043   3.4066   3.7386   3.7747   4.0853   5.0384
     5.2201   5.6722   5.6959   6.1356   6.4560   6.8404   7.2369   7.2873
     7.3277   7.9676   8.1551   8.4540   8.6982   8.8355   8.8927   9.2979
    18.7868  19.1614  19.3587  19.4366  20.0122  20.2582  20.7087  20.9564
    21.5966  21.8171  21.8980  21.9800  22.1251  22.7468  23.2862  23.3108
    23.5886  23.5982  23.9658  24.2146  25.0989  25.1902  25.2358  25.4415
    25.6319  26.0367  26.1936  26.4220  27.0025  27.1083  27.2898  27.9595
    30.3173  30.5987  30.8240  31.0210  31.4904  31.8916  31.9677  32.2419
    35.0921  35.4139  35.5233  35.7092  35.7943  36.4017  36.6488  36.8090
    37.9806  38.1338  38.4035  38.6824  39.8189  40.2834  40.6407  40.8924
    41.4896  42.1202  42.8594  42.9818  44.0169  44.4647  44.4840  44.5209
    46.5878  47.8481  47.9352  48.8631  48.9922  49.8794  50.2281  50.7806
    50.8262  51.3324  51.4916  51.6639  52.5066  52.5476  52.6258  52.9168
    53.0530  53.3531  53.6467  53.8772  54.0068  55.0769  55.1781  55.7443

     highest occupied, lowest unoccupied level (ev):    11.3065   16.5285

!    total energy              =    -318.81584849 Ry
     Harris-Foulkes estimate   =    -318.81584849 Ry
     estimated scf accuracy    <          9.0E-10 Ry

     total all-electron energy =     -1275.121012 Ry

     The total energy is the sum of the following terms:

     one-electron contribution =      38.94272459 Ry
     hartree contribution      =      29.19584783 Ry
     xc contribution           =     -71.16248031 Ry
     ewald contribution        =    -210.38787397 Ry
     one-center paw contrib.   =    -105.40406663 Ry

     convergence has been achieved in  12 iterations

     Forces acting on atoms (cartesian axes, Ry/au):

     atom    1 type  1   force =    -0.00000004    0.00000011   -0.00000023
     atom    2 type  2   force =     0.00000071    0.00000014    0.00000007
     atom    3 type  1   force =    -0.00000013    0.00000038    0.00000008
     atom    4 type  2   force =     0.00000040    0.00000014    0.00000005
     atom    5 type  1   force =     0.00000014   -0.00000008   -0.00000019
     atom    6 type  2   force =    -0.00000065    0.00000038    0.00000038
     atom    7 type  1   force =     0.00000002   -0.00000001   -0.00000002
     atom    8 type  2   force =    -0.00000046    0.00000026   -0.00000035
     atom    9 type  1   force =     0.00000023   -0.00000013    0.00000008
     atom   10 type  2   force =    -0.00000017    0.00000010    0.00000026
     atom   11 type  1   force =     0.00000028   -0.00000016   -0.00000006
     atom   12 type  2   force =    -0.00000014    0.00000008   -0.00000006
     atom   13 type  1   force =    -0.00000011   -0.00000002   -0.00000023
     atom   14 type  2   force =     0.00000023   -0.00000069    0.00000007
     atom   15 type  1   force =    -0.00000040   -0.00000008    0.00000008
     atom   16 type  2   force =     0.00000008   -0.00000042    0.00000005

     Total force =     0.000002     Total SCF correction =     0.000024
     SCF correction compared to forces is large: reduce conv_thr to get better values


     Computing stress (Cartesian axis) and pressure

          total   stress  (Ry/bohr**3)                   (kbar)     P=   49.95
   0.00033956   0.00000000   0.00000000         49.95      0.00      0.00
   0.00000000   0.00033956  -0.00000000          0.00     49.95     -0.00
   0.00000000  -0.00000000   0.00033951          0.00     -0.00     49.94


     Writing output data file pwscf.save/
 
     init_run     :     13.34s CPU     13.61s WALL (       2 calls)
     electrons    :   1119.35s CPU   1149.84s WALL (       8 calls)
     update_pot   :      7.87s CPU      7.89s WALL (       6 calls)
     forces       :      9.42s CPU      9.45s WALL (       8 calls)
     stress       :     23.94s CPU     23.97s WALL (       8 calls)

     Called by init_run:
     wfcinit      :     10.71s CPU     10.96s WALL (       2 calls)
     potinit      :      1.40s CPU      1.42s WALL (       2 calls)
     hinit0       :      1.10s CPU      1.10s WALL (       2 calls)

     Called by electrons:
     c_bands      :    951.19s CPU    978.08s WALL (      61 calls)
     sum_band     :    140.50s CPU    143.48s WALL (      61 calls)
     v_of_rho     :      4.68s CPU      4.77s WALL (      65 calls)
     newd         :      0.66s CPU      0.67s WALL (      65 calls)
     PAW_pot      :     28.15s CPU     28.24s WALL (      71 calls)
     mix_rho      :      0.17s CPU      0.18s WALL (      61 calls)

     Called by c_bands:
     init_us_2    :      2.35s CPU      2.46s WALL (    4964 calls)
     cegterg      :    938.78s CPU    964.51s WALL (    2074 calls)

     Called by sum_band:
     sum_band:bec :      0.28s CPU      0.28s WALL (    2278 calls)
     addusdens    :      0.53s CPU      0.55s WALL (      61 calls)

     Called by *egterg:
     h_psi        :    569.17s CPU    582.64s WALL (    5516 calls)
     s_psi        :     15.70s CPU     15.86s WALL (    5516 calls)
     g_psi        :      2.02s CPU      2.04s WALL (    3374 calls)
     cdiaghg      :    242.68s CPU    253.41s WALL (    5108 calls)

     Called by h_psi:
     h_psi:pot    :    567.74s CPU    580.49s WALL (    5516 calls)
     h_psi:calbec :     20.04s CPU     20.74s WALL (    5516 calls)
     vloc_psi     :    531.77s CPU    543.68s WALL (    5516 calls)
     add_vuspsi   :     15.88s CPU     16.03s WALL (    5516 calls)

     General routines
     calbec       :     35.63s CPU     36.37s WALL (    9154 calls)
     fft          :      1.90s CPU      2.02s WALL (     933 calls)
     ffts         :      0.05s CPU      0.05s WALL (      61 calls)
     fftw         :    622.26s CPU    635.88s WALL ( 1348016 calls)
 
     Parallel routines
     fft_scatt_xy :     70.90s CPU     72.35s WALL ( 1349010 calls)
     fft_scatt_yz :    149.42s CPU    152.99s WALL ( 1349010 calls)
 
     PWSCF        : 19m39.47s CPU    20m13.97s WALL

 
   This run was terminated on:   1: 7:34   2Dec2020            

=------------------------------------------------------------------------------=
   JOB DONE.
=------------------------------------------------------------------------------=
