ANIMSTEPS  48
CRYSTAL
PRIMVEC
    5.099110105   -0.000000285    0.000000000
   -2.549555300    4.415958742    0.000000000
    0.000000000    0.000000000    4.216696619
PRIMCOORD  1
     16   1
   B     -0.00000   1.47199   0.76373  -0.00077   0.00006   0.02499
   N     -0.00000   1.47199   3.40127  -0.00077   0.00006   0.02499
   B      1.27478   0.73599   2.87208  -0.00077   0.00006   0.02499
   N      1.27478   0.73599   1.29292  -0.00077   0.00006   0.02499
   B      2.54955   1.47199   0.76373  -0.00077   0.00006   0.02499
   N      2.54955   1.47199   3.40127  -0.00077   0.00006   0.02499
   B      3.82433   0.73599   2.87208  -0.00077   0.00006   0.02499
   N      3.82433   0.73599   1.29292  -0.00077   0.00006   0.02499
   B     -1.27478   3.67997   0.76373  -0.00077   0.00006   0.02499
   N     -1.27478   3.67997   3.40127  -0.00077   0.00006   0.02499
   B     -0.00000   2.94397   2.87208  -0.00077   0.00006   0.02499
   N     -0.00000   2.94397   1.29292  -0.00077   0.00006   0.02499
   B      1.27478   3.67997   0.76373  -0.00077   0.00006   0.02499
   N      1.27478   3.67997   3.40127  -0.00077   0.00006   0.02499
   B      2.54955   2.94397   2.87208  -0.00077   0.00006   0.02499
   N      2.54955   2.94397   1.29292  -0.00077   0.00006   0.02499
PRIMCOORD  2
     16   1
   B     -0.00000   1.47199   0.76373  -0.02373  -0.00783  -0.00072
   N     -0.00000   1.47199   3.40127  -0.02373  -0.00783  -0.00072
   B      1.27478   0.73599   2.87208  -0.02373  -0.00783  -0.00072
   N      1.27478   0.73599   1.29292  -0.02373  -0.00783  -0.00072
   B      2.54955   1.47199   0.76373  -0.02373  -0.00783  -0.00072
   N      2.54955   1.47199   3.40127  -0.02373  -0.00783  -0.00072
   B      3.82433   0.73599   2.87208  -0.02373  -0.00783  -0.00072
   N      3.82433   0.73599   1.29292  -0.02373  -0.00783  -0.00072
   B     -1.27478   3.67997   0.76373  -0.02373  -0.00783  -0.00072
   N     -1.27478   3.67997   3.40127  -0.02373  -0.00783  -0.00072
   B     -0.00000   2.94397   2.87208  -0.02373  -0.00783  -0.00072
   N     -0.00000   2.94397   1.29292  -0.02373  -0.00783  -0.00072
   B      1.27478   3.67997   0.76373  -0.02373  -0.00783  -0.00072
   N      1.27478   3.67997   3.40127  -0.02373  -0.00783  -0.00072
   B      2.54955   2.94397   2.87208  -0.02373  -0.00783  -0.00072
   N      2.54955   2.94397   1.29292  -0.02373  -0.00783  -0.00072
PRIMCOORD  3
     16   1
   B     -0.00000   1.47199   0.76373  -0.00782   0.02374  -0.00030
   N     -0.00000   1.47199   3.40127  -0.00782   0.02374  -0.00030
   B      1.27478   0.73599   2.87208  -0.00782   0.02374  -0.00030
   N      1.27478   0.73599   1.29292  -0.00782   0.02374  -0.00030
   B      2.54955   1.47199   0.76373  -0.00782   0.02374  -0.00030
   N      2.54955   1.47199   3.40127  -0.00782   0.02374  -0.00030
   B      3.82433   0.73599   2.87208  -0.00782   0.02374  -0.00030
   N      3.82433   0.73599   1.29292  -0.00782   0.02374  -0.00030
   B     -1.27478   3.67997   0.76373  -0.00782   0.02374  -0.00030
   N     -1.27478   3.67997   3.40127  -0.00782   0.02374  -0.00030
   B     -0.00000   2.94397   2.87208  -0.00782   0.02374  -0.00030
   N     -0.00000   2.94397   1.29292  -0.00782   0.02374  -0.00030
   B      1.27478   3.67997   0.76373  -0.00782   0.02374  -0.00030
   N      1.27478   3.67997   3.40127  -0.00782   0.02374  -0.00030
   B      2.54955   2.94397   2.87208  -0.00782   0.02374  -0.00030
   N      2.54955   2.94397   1.29292  -0.00782   0.02374  -0.00030
PRIMCOORD  4
     16   1
   B     -0.00000   1.47199   0.76373   0.01214   0.02097  -0.00000
   N     -0.00000   1.47199   3.40127  -0.01283  -0.02231  -0.00000
   B      1.27478   0.73599   2.87208  -0.01209  -0.02100  -0.00000
   N      1.27478   0.73599   1.29292   0.01289   0.02228   0.00000
   B      2.54955   1.47199   0.76373   0.01200   0.02079   0.00000
   N      2.54955   1.47199   3.40127  -0.01298  -0.02249   0.00000
   B      3.82433   0.73599   2.87208  -0.01199  -0.02077  -0.00000
   N      3.82433   0.73599   1.29292   0.01299   0.02251  -0.00000
   B     -1.27478   3.67997   0.76373   0.01199   0.02078   0.00000
   N     -1.27478   3.67997   3.40127  -0.01299  -0.02251  -0.00000
   B     -0.00000   2.94397   2.87208  -0.01200  -0.02080  -0.00000
   N     -0.00000   2.94397   1.29292   0.01298   0.02249   0.00000
   B      1.27478   3.67997   0.76373   0.01209   0.02100   0.00000
   N      1.27478   3.67997   3.40127  -0.01289  -0.02227   0.00000
   B      2.54955   2.94397   2.87208  -0.01213  -0.02097   0.00000
   N      2.54955   2.94397   1.29292   0.01284   0.02230  -0.00000
PRIMCOORD  5
     16   1
   B     -0.00000   1.47199   0.76373  -0.02088   0.01204  -0.00000
   N     -0.00000   1.47199   3.40127   0.02240  -0.01293  -0.00000
   B      1.27478   0.73599   2.87208   0.02088  -0.01206  -0.00000
   N      1.27478   0.73599   1.29292  -0.02240   0.01292   0.00000
   B      2.54955   1.47199   0.76373  -0.02092   0.01207   0.00000
   N      2.54955   1.47199   3.40127   0.02236  -0.01290   0.00001
   B      3.82433   0.73599   2.87208   0.02087  -0.01204   0.00000
   N      3.82433   0.73599   1.29292  -0.02242   0.01294  -0.00001
   B     -1.27478   3.67997   0.76373  -0.02087   0.01204   0.00000
   N     -1.27478   3.67997   3.40127   0.02241  -0.01293  -0.00001
   B     -0.00000   2.94397   2.87208   0.02091  -0.01207  -0.00000
   N     -0.00000   2.94397   1.29292  -0.02236   0.01290  -0.00000
   B      1.27478   3.67997   0.76373  -0.02088   0.01206  -0.00000
   N      1.27478   3.67997   3.40127   0.02240  -0.01293  -0.00000
   B      2.54955   2.94397   2.87208   0.02089  -0.01205  -0.00000
   N      2.54955   2.94397   1.29292  -0.02240   0.01293   0.00000
PRIMCOORD  6
     16   1
   B     -0.00000   1.47199   0.76373  -0.02702  -0.00469  -0.00000
   N     -0.00000   1.47199   3.40127  -0.02787  -0.00499   0.00000
   B      1.27478   0.73599   2.87208  -0.00944   0.02576  -0.00000
   N      1.27478   0.73599   1.29292  -0.00961   0.02665  -0.00001
   B      2.54955   1.47199   0.76373   0.00282   0.00486  -0.00000
   N      2.54955   1.47199   3.40127   0.00280   0.00482   0.00000
   B      3.82433   0.73599   2.87208  -0.01495  -0.02592  -0.00000
   N      3.82433   0.73599   1.29292  -0.01526  -0.02646  -0.00000
   B     -1.27478   3.67997   0.76373   0.01495   0.02592   0.00000
   N     -1.27478   3.67997   3.40127   0.01526   0.02646  -0.00000
   B     -0.00000   2.94397   2.87208  -0.00282  -0.00486   0.00000
   N     -0.00000   2.94397   1.29292  -0.00280  -0.00482   0.00000
   B      1.27478   3.67997   0.76373   0.00944  -0.02576   0.00000
   N      1.27478   3.67997   3.40127   0.00961  -0.02665  -0.00000
   B      2.54955   2.94397   2.87208   0.02702   0.00469   0.00000
   N      2.54955   2.94397   1.29292   0.02787   0.00499   0.00001
PRIMCOORD  7
     16   1
   B     -0.00000   1.47199   0.76373   0.00874   0.01508  -0.00000
   N     -0.00000   1.47199   3.40127   0.00902   0.01548   0.00000
   B      1.27478   0.73599   2.87208   0.00877   0.01509   0.00000
   N      1.27478   0.73599   1.29292   0.00898   0.01554   0.00000
   B      2.54955   1.47199   0.76373   0.02614  -0.01505  -0.00000
   N      2.54955   1.47199   3.40127   0.02689  -0.01549   0.00001
   B      3.82433   0.73599   2.87208   0.02617  -0.01510   0.00000
   N      3.82433   0.73599   1.29292   0.02687  -0.01550  -0.00002
   B     -1.27478   3.67997   0.76373  -0.02617   0.01510   0.00000
   N     -1.27478   3.67997   3.40127  -0.02686   0.01550  -0.00001
   B     -0.00000   2.94397   2.87208  -0.02614   0.01505   0.00000
   N     -0.00000   2.94397   1.29292  -0.02690   0.01549   0.00001
   B      1.27478   3.67997   0.76373  -0.00877  -0.01509  -0.00000
   N      1.27478   3.67997   3.40127  -0.00898  -0.01554   0.00000
   B      2.54955   2.94397   2.87208  -0.00874  -0.01508   0.00000
   N      2.54955   2.94397   1.29292  -0.00902  -0.01549   0.00000
PRIMCOORD  8
     16   1
   B     -0.00000   1.47199   0.76373  -0.01017   0.02567  -0.00000
   N     -0.00000   1.47199   3.40127  -0.01039   0.02651  -0.00000
   B      1.27478   0.73599   2.87208  -0.02730  -0.00399  -0.00000
   N      1.27478   0.73599   1.29292  -0.02812  -0.00422  -0.00001
   B      2.54955   1.47199   0.76373  -0.01484  -0.02578  -0.00000
   N      2.54955   1.47199   3.40127  -0.01518  -0.02638   0.00000
   B      3.82433   0.73599   2.87208   0.00241   0.00410   0.00000
   N      3.82433   0.73599   1.29292   0.00241   0.00410  -0.00000
   B     -1.27478   3.67997   0.76373  -0.00241  -0.00410   0.00000
   N     -1.27478   3.67997   3.40127  -0.00242  -0.00411  -0.00000
   B     -0.00000   2.94397   2.87208   0.01484   0.02578   0.00000
   N     -0.00000   2.94397   1.29292   0.01519   0.02638   0.00000
   B      1.27478   3.67997   0.76373   0.02730   0.00399   0.00000
   N      1.27478   3.67997   3.40127   0.02813   0.00422   0.00000
   B      2.54955   2.94397   2.87208   0.01017  -0.02568   0.00000
   N      2.54955   2.94397   1.29292   0.01039  -0.02650   0.00001
PRIMCOORD  9
     16   1
   B     -0.00000   1.47199   0.76373   0.00058   0.00042  -0.01232
   N     -0.00000   1.47199   3.40127  -0.00130  -0.00092  -0.01193
   B      1.27478   0.73599   2.87208  -0.00006  -0.00071   0.01232
   N      1.27478   0.73599   1.29292   0.00017   0.00159   0.01192
   B      2.54955   1.47199   0.76373  -0.00059   0.00034  -0.01907
   N      2.54955   1.47199   3.40127   0.00130  -0.00075  -0.01846
   B      3.82433   0.73599   2.87208   0.00006  -0.00004  -0.04372
   N      3.82433   0.73599   1.29292  -0.00018   0.00010  -0.04228
   B     -1.27478   3.67997   0.76373   0.00008  -0.00005   0.04371
   N     -1.27478   3.67997   3.40127  -0.00015   0.00009   0.04229
   B     -0.00000   2.94397   2.87208  -0.00058   0.00034   0.01907
   N     -0.00000   2.94397   1.29292   0.00130  -0.00075   0.01845
   B      1.27478   3.67997   0.76373  -0.00008  -0.00071  -0.01232
   N      1.27478   3.67997   3.40127   0.00015   0.00159  -0.01193
   B      2.54955   2.94397   2.87208   0.00058   0.00041   0.01232
   N      2.54955   2.94397   1.29292  -0.00129  -0.00094   0.01192
PRIMCOORD 10
     16   1
   B     -0.00000   1.47199   0.76373  -0.00028   0.00058   0.02220
   N     -0.00000   1.47199   3.40127   0.00062  -0.00130   0.02149
   B      1.27478   0.73599   2.87208  -0.00064  -0.00005  -0.02220
   N      1.27478   0.73599   1.29292   0.00143   0.00011  -0.02148
   B      2.54955   1.47199   0.76373   0.00028  -0.00016  -0.03962
   N      2.54955   1.47199   3.40127  -0.00062   0.00036  -0.03832
   B      3.82433   0.73599   2.87208   0.00064  -0.00037   0.00477
   N      3.82433   0.73599   1.29292  -0.00143   0.00082   0.00460
   B     -1.27478   3.67997   0.76373   0.00063  -0.00037  -0.00477
   N     -1.27478   3.67997   3.40127  -0.00143   0.00082  -0.00461
   B     -0.00000   2.94397   2.87208   0.00029  -0.00016   0.03963
   N     -0.00000   2.94397   1.29292  -0.00062   0.00036   0.03831
   B      1.27478   3.67997   0.76373  -0.00064  -0.00005   0.02220
   N      1.27478   3.67997   3.40127   0.00143   0.00011   0.02149
   B      2.54955   2.94397   2.87208  -0.00028   0.00058  -0.02220
   N      2.54955   2.94397   1.29292   0.00061  -0.00129  -0.02148
PRIMCOORD 11
     16   1
   B     -0.00000   1.47199   0.76373  -0.00037   0.00021  -0.03591
   N     -0.00000   1.47199   3.40127   0.00082  -0.00048  -0.03474
   B      1.27478   0.73599   2.87208   0.00037  -0.00021  -0.03591
   N      1.27478   0.73599   1.29292  -0.00083   0.00047  -0.03472
   B      2.54955   1.47199   0.76373   0.00037   0.00065  -0.00000
   N      2.54955   1.47199   3.40127  -0.00082  -0.00143  -0.00000
   B      3.82433   0.73599   2.87208  -0.00037  -0.00065  -0.00000
   N      3.82433   0.73599   1.29292   0.00084   0.00145  -0.00000
   B     -1.27478   3.67997   0.76373  -0.00038  -0.00065   0.00000
   N     -1.27478   3.67997   3.40127   0.00083   0.00144   0.00000
   B     -0.00000   2.94397   2.87208   0.00037   0.00065   0.00000
   N     -0.00000   2.94397   1.29292  -0.00083  -0.00144   0.00000
   B      1.27478   3.67997   0.76373   0.00037  -0.00021   0.03591
   N      1.27478   3.67997   3.40127  -0.00083   0.00047   0.03474
   B      2.54955   2.94397   2.87208  -0.00036   0.00021   0.03591
   N      2.54955   2.94397   1.29292   0.00082  -0.00048   0.03472
PRIMCOORD 12
     16   1
   B     -0.00000   1.47199   0.76373  -0.02658  -0.00722  -0.00001
   N     -0.00000   1.47199   3.40127   0.02624   0.00712  -0.00003
   B      1.27478   0.73599   2.87208   0.00705  -0.02664  -0.00001
   N      1.27478   0.73599   1.29292  -0.00694   0.02628   0.00001
   B      2.54955   1.47199   0.76373   0.00417   0.00722  -0.00000
   N      2.54955   1.47199   3.40127  -0.00412  -0.00714  -0.00000
   B      3.82433   0.73599   2.87208   0.01537   0.02662  -0.00000
   N      3.82433   0.73599   1.29292  -0.01518  -0.02630  -0.00000
   B     -1.27478   3.67997   0.76373   0.01538   0.02663  -0.00000
   N     -1.27478   3.67997   3.40127  -0.01517  -0.02628  -0.00000
   B     -0.00000   2.94397   2.87208   0.00418   0.00724   0.00000
   N     -0.00000   2.94397   1.29292  -0.00411  -0.00712   0.00000
   B      1.27478   3.67997   0.76373   0.00703  -0.02663   0.00001
   N      1.27478   3.67997   3.40127  -0.00695   0.02629   0.00003
   B      2.54955   2.94397   2.87208  -0.02659  -0.00721   0.00001
   N      2.54955   2.94397   1.29292   0.02623   0.00713  -0.00001
PRIMCOORD 13
     16   1
   B     -0.00000   1.47199   0.76373  -0.00889  -0.01541   0.00001
   N     -0.00000   1.47199   3.40127   0.00879   0.01521  -0.00000
   B      1.27478   0.73599   2.87208   0.00889   0.01541  -0.00001
   N      1.27478   0.73599   1.29292  -0.00878  -0.01521   0.00001
   B      2.54955   1.47199   0.76373  -0.02669   0.01541   0.00001
   N      2.54955   1.47199   3.40127   0.02632  -0.01520  -0.00001
   B      3.82433   0.73599   2.87208   0.02670  -0.01541   0.00000
   N      3.82433   0.73599   1.29292  -0.02634   0.01520   0.00001
   B     -1.27478   3.67997   0.76373   0.02669  -0.01541  -0.00000
   N     -1.27478   3.67997   3.40127  -0.02635   0.01521  -0.00001
   B     -0.00000   2.94397   2.87208  -0.02669   0.01542  -0.00000
   N     -0.00000   2.94397   1.29292   0.02634  -0.01521   0.00001
   B      1.27478   3.67997   0.76373   0.00890   0.01540   0.00001
   N      1.27478   3.67997   3.40127  -0.00877  -0.01522  -0.00000
   B      2.54955   2.94397   2.87208  -0.00890  -0.01541  -0.00001
   N      2.54955   2.94397   1.29292   0.00878   0.01522   0.00001
PRIMCOORD 14
     16   1
   B     -0.00000   1.47199   0.76373   0.01281  -0.02569   0.00000
   N     -0.00000   1.47199   3.40127  -0.01264   0.02536   0.00000
   B      1.27478   0.73599   2.87208  -0.02866  -0.00176  -0.00000
   N      1.27478   0.73599   1.29292   0.02827   0.00174   0.00000
   B      2.54955   1.47199   0.76373   0.01484   0.02570   0.00000
   N      2.54955   1.47199   3.40127  -0.01464  -0.02535   0.00000
   B      3.82433   0.73599   2.87208   0.00101   0.00176  -0.00000
   N      3.82433   0.73599   1.29292  -0.00099  -0.00172  -0.00000
   B     -1.27478   3.67997   0.76373   0.00101   0.00176  -0.00000
   N     -1.27478   3.67997   3.40127  -0.00100  -0.00174   0.00000
   B     -0.00000   2.94397   2.87208   0.01484   0.02569   0.00000
   N     -0.00000   2.94397   1.29292  -0.01465  -0.02537  -0.00000
   B      1.27478   3.67997   0.76373  -0.02866  -0.00176  -0.00000
   N      1.27478   3.67997   3.40127   0.02828   0.00173  -0.00000
   B      2.54955   2.94397   2.87208   0.01281  -0.02570   0.00000
   N      2.54955   2.94397   1.29292  -0.01263   0.02535  -0.00000
PRIMCOORD 15
     16   1
   B     -0.00000   1.47199   0.76373  -0.01076  -0.01196  -0.00588
   N     -0.00000   1.47199   3.40127  -0.00106  -0.00114  -0.00565
   B      1.27478   0.73599   2.87208  -0.00497  -0.01531  -0.00588
   N      1.27478   0.73599   1.29292  -0.00046  -0.00154  -0.00566
   B      2.54955   1.47199   0.76373   0.01074  -0.00620  -0.02648
   N      2.54955   1.47199   3.40127   0.00106  -0.00061  -0.02537
   B      3.82433   0.73599   2.87208   0.00501  -0.00289   0.03828
   N      3.82433   0.73599   1.29292   0.00048  -0.00028   0.03666
   B     -1.27478   3.67997   0.76373  -0.00501   0.00289   0.03822
   N     -1.27478   3.67997   3.40127  -0.00047   0.00027   0.03671
   B     -0.00000   2.94397   2.87208  -0.01077   0.00622  -0.02649
   N     -0.00000   2.94397   1.29292  -0.00110   0.00064  -0.02537
   B      1.27478   3.67997   0.76373   0.00498   0.01529  -0.00588
   N      1.27478   3.67997   3.40127   0.00046   0.00149  -0.00565
   B      2.54955   2.94397   2.87208   0.01077   0.01196  -0.00588
   N      2.54955   2.94397   1.29292   0.00111   0.00117  -0.00566
PRIMCOORD 16
     16   1
   B     -0.00000   1.47199   0.76373  -0.00912   0.00998  -0.02289
   N     -0.00000   1.47199   3.40127  -0.00093   0.00106  -0.02192
   B      1.27478   0.73599   2.87208   0.01318  -0.00293  -0.02286
   N      1.27478   0.73599   1.29292   0.00127  -0.00033  -0.02197
   B      2.54955   1.47199   0.76373   0.00912  -0.00526   0.03126
   N      2.54955   1.47199   3.40127   0.00092  -0.00053   0.02990
   B      3.82433   0.73599   2.87208  -0.01315   0.00759   0.01457
   N      3.82433   0.73599   1.29292  -0.00127   0.00073   0.01392
   B     -1.27478   3.67997   0.76373   0.01319  -0.00761   0.01451
   N     -1.27478   3.67997   3.40127   0.00137  -0.00079   0.01397
   B     -0.00000   2.94397   2.87208  -0.00912   0.00527   0.03118
   N     -0.00000   2.94397   1.29292  -0.00091   0.00052   0.02996
   B      1.27478   3.67997   0.76373  -0.01320   0.00291  -0.02289
   N      1.27478   3.67997   3.40127  -0.00138   0.00027  -0.02192
   B      2.54955   2.94397   2.87208   0.00913  -0.00995  -0.02285
   N      2.54955   2.94397   1.29292   0.00092  -0.00093  -0.02197
PRIMCOORD 17
     16   1
   B     -0.00000   1.47199   0.76373  -0.00811   0.00468   0.03348
   N     -0.00000   1.47199   3.40127  -0.00073   0.00042   0.03201
   B      1.27478   0.73599   2.87208  -0.00809   0.00467  -0.03350
   N      1.27478   0.73599   1.29292  -0.00074   0.00043  -0.03202
   B      2.54955   1.47199   0.76373   0.00811   0.01404  -0.00000
   N      2.54955   1.47199   3.40127   0.00074   0.00128  -0.00000
   B      3.82433   0.73599   2.87208   0.00811   0.01405  -0.00000
   N      3.82433   0.73599   1.29292   0.00073   0.00127  -0.00000
   B     -1.27478   3.67997   0.76373  -0.00810  -0.01403  -0.00000
   N     -1.27478   3.67997   3.40127  -0.00075  -0.00130  -0.00000
   B     -0.00000   2.94397   2.87208  -0.00810  -0.01403  -0.00000
   N     -0.00000   2.94397   1.29292  -0.00073  -0.00127  -0.00000
   B      1.27478   3.67997   0.76373   0.00811  -0.00469  -0.03348
   N      1.27478   3.67997   3.40127   0.00073  -0.00042  -0.03201
   B      2.54955   2.94397   2.87208   0.00809  -0.00467   0.03350
   N      2.54955   2.94397   1.29292   0.00074  -0.00043   0.03202
PRIMCOORD 18
     16   1
   B     -0.00000   1.47199   0.76373   0.00714   0.01312   0.00017
   N     -0.00000   1.47199   3.40127   0.01448   0.02655   0.00009
   B      1.27478   0.73599   2.87208  -0.00724  -0.01264   0.00065
   N      1.27478   0.73599   1.29292  -0.01473  -0.02570  -0.00034
   B      2.54955   1.47199   0.76373  -0.00708   0.00409   0.02367
   N      2.54955   1.47199   3.40127  -0.01444   0.00834  -0.02077
   B      3.82433   0.73599   2.87208   0.00717  -0.00414   0.02377
   N      3.82433   0.73599   1.29292   0.01470  -0.00849  -0.02066
   B     -1.27478   3.67997   0.76373   0.00774  -0.00447  -0.02406
   N     -1.27478   3.67997   3.40127   0.01573  -0.00908   0.02066
   B     -0.00000   2.94397   2.87208  -0.00728   0.00420  -0.02503
   N     -0.00000   2.94397   1.29292  -0.01487   0.00858   0.02128
   B      1.27478   3.67997   0.76373  -0.00779  -0.01274   0.00017
   N      1.27478   3.67997   3.40127  -0.01575  -0.02582   0.00009
   B      2.54955   2.94397   2.87208   0.00733   0.01259   0.00065
   N      2.54955   2.94397   1.29292   0.01489   0.02561  -0.00034
PRIMCOORD 19
     16   1
   B     -0.00000   1.47199   0.76373  -0.00732   0.00422   0.02413
   N     -0.00000   1.47199   3.40127  -0.01492   0.00861  -0.02087
   B      1.27478   0.73599   2.87208   0.00727  -0.00420   0.02420
   N      1.27478   0.73599   1.29292   0.01485  -0.00858  -0.02086
   B      2.54955   1.47199   0.76373   0.00743   0.01287  -0.00000
   N      2.54955   1.47199   3.40127   0.01500   0.02598   0.00000
   B      3.82433   0.73599   2.87208  -0.00738  -0.01278   0.00000
   N      3.82433   0.73599   1.29292  -0.01492  -0.02583  -0.00000
   B     -1.27478   3.67997   0.76373  -0.00741  -0.01284  -0.00000
   N     -1.27478   3.67997   3.40127  -0.01500  -0.02598   0.00000
   B     -0.00000   2.94397   2.87208   0.00737   0.01277   0.00000
   N     -0.00000   2.94397   1.29292   0.01492   0.02585  -0.00000
   B      1.27478   3.67997   0.76373   0.00732  -0.00423  -0.02413
   N      1.27478   3.67997   3.40127   0.01492  -0.00862   0.02087
   B      2.54955   2.94397   2.87208  -0.00727   0.00420  -0.02421
   N      2.54955   2.94397   1.29292  -0.01486   0.00857   0.02086
PRIMCOORD 20
     16   1
   B     -0.00000   1.47199   0.76373   0.01054  -0.00609   0.01685
   N     -0.00000   1.47199   3.40127   0.02140  -0.01234  -0.01476
   B      1.27478   0.73599   2.87208   0.01007  -0.00632  -0.01738
   N      1.27478   0.73599   1.29292   0.02050  -0.01277   0.01494
   B      2.54955   1.47199   0.76373  -0.01053   0.00608  -0.01598
   N      2.54955   1.47199   3.40127  -0.02137   0.01234   0.01408
   B      3.82433   0.73599   2.87208  -0.01013   0.00585   0.01719
   N      3.82433   0.73599   1.29292  -0.02049   0.01183  -0.01484
   B     -1.27478   3.67997   0.76373  -0.01058   0.00611  -0.01750
   N     -1.27478   3.67997   3.40127  -0.02139   0.01235   0.01496
   B     -0.00000   2.94397   2.87208  -0.01049   0.00605   0.01740
   N     -0.00000   2.94397   1.29292  -0.02130   0.01229  -0.01458
   B      1.27478   3.67997   0.76373   0.01055  -0.00608   0.01685
   N      1.27478   3.67997   3.40127   0.02138  -0.01236  -0.01476
   B      2.54955   2.94397   2.87208   0.01050  -0.00556  -0.01738
   N      2.54955   2.94397   1.29292   0.02132  -0.01137   0.01493
PRIMCOORD 21
     16   1
   B     -0.00000   1.47199   0.76373  -0.01174  -0.01040   0.00775
   N     -0.00000   1.47199   3.40127  -0.02048  -0.01819  -0.00355
   B      1.27478   0.73599   2.87208  -0.00334  -0.01531   0.00803
   N      1.27478   0.73599   1.29292  -0.00592  -0.02676  -0.00378
   B      2.54955   1.47199   0.76373   0.01167  -0.00674   0.02038
   N      2.54955   1.47199   3.40127   0.02043  -0.01179  -0.00957
   B      3.82433   0.73599   2.87208   0.00349  -0.00202  -0.03604
   N      3.82433   0.73599   1.29292   0.00596  -0.00344   0.01679
   B     -1.27478   3.67997   0.76373  -0.00323   0.00187  -0.03585
   N     -1.27478   3.67997   3.40127  -0.00551   0.00318   0.01663
   B     -0.00000   2.94397   2.87208  -0.01159   0.00669   0.01995
   N     -0.00000   2.94397   1.29292  -0.02020   0.01166  -0.00918
   B      1.27478   3.67997   0.76373   0.00314   0.01537   0.00775
   N      1.27478   3.67997   3.40127   0.00551   0.02683  -0.00355
   B      2.54955   2.94397   2.87208   0.01159   0.01054   0.00803
   N      2.54955   2.94397   1.29292   0.02021   0.01850  -0.00378
PRIMCOORD 22
     16   1
   B     -0.00000   1.47199   0.76373  -0.00755   0.01084   0.02019
   N     -0.00000   1.47199   3.40127  -0.01321   0.01888  -0.00950
   B      1.27478   0.73599   2.87208   0.01385  -0.00075   0.01959
   N      1.27478   0.73599   1.29292   0.02417  -0.00136  -0.00900
   B      2.54955   1.47199   0.76373   0.00747  -0.00432  -0.03175
   N      2.54955   1.47199   3.40127   0.01313  -0.00758   0.01509
   B      3.82433   0.73599   2.87208  -0.01371   0.00791  -0.00899
   N      3.82433   0.73599   1.29292  -0.02413   0.01393   0.00425
   B     -1.27478   3.67997   0.76373   0.01318  -0.00761  -0.00860
   N     -1.27478   3.67997   3.40127   0.02297  -0.01326   0.00386
   B     -0.00000   2.94397   2.87208  -0.00761   0.00440  -0.03022
   N     -0.00000   2.94397   1.29292  -0.01328   0.00767   0.01379
   B      1.27478   3.67997   0.76373  -0.01317   0.00111   0.02019
   N      1.27478   3.67997   3.40127  -0.02296   0.00200  -0.00950
   B      2.54955   2.94397   2.87208   0.00758  -0.01162   0.01960
   N      2.54955   2.94397   1.29292   0.01326  -0.02025  -0.00900
PRIMCOORD 23
     16   1
   B     -0.00000   1.47199   0.76373   0.00799  -0.00466   0.03024
   N     -0.00000   1.47199   3.40127   0.01391  -0.00808  -0.01434
   B      1.27478   0.73599   2.87208   0.00798  -0.00470  -0.03015
   N      1.27478   0.73599   1.29292   0.01397  -0.00812   0.01426
   B      2.54955   1.47199   0.76373  -0.00797  -0.01381   0.00000
   N      2.54955   1.47199   3.40127  -0.01391  -0.02410  -0.00000
   B      3.82433   0.73599   2.87208  -0.00802  -0.01390   0.00000
   N      3.82433   0.73599   1.29292  -0.01397  -0.02421  -0.00000
   B     -1.27478   3.67997   0.76373   0.00802   0.01389   0.00000
   N     -1.27478   3.67997   3.40127   0.01399   0.02423  -0.00000
   B     -0.00000   2.94397   2.87208   0.00807   0.01398   0.00000
   N     -0.00000   2.94397   1.29292   0.01401   0.02426  -0.00000
   B      1.27478   3.67997   0.76373  -0.00803   0.00459  -0.03024
   N      1.27478   3.67997   3.40127  -0.01395   0.00801   0.01434
   B      2.54955   2.94397   2.87208  -0.00806   0.00456   0.03014
   N      2.54955   2.94397   1.29292  -0.01402   0.00804  -0.01426
PRIMCOORD 24
     16   1
   B     -0.00000   1.47199   0.76373  -0.02118  -0.01881  -0.00006
   N     -0.00000   1.47199   3.40127  -0.01658  -0.01469   0.00004
   B      1.27478   0.73599   2.87208  -0.00572  -0.02774   0.00009
   N      1.27478   0.73599   1.29292  -0.00447  -0.02169  -0.00006
   B      2.54955   1.47199   0.76373   0.01087   0.01882  -0.00000
   N      2.54955   1.47199   3.40127   0.00853   0.01476   0.00000
   B      3.82433   0.73599   2.87208   0.01602   0.02776  -0.00000
   N      3.82433   0.73599   1.29292   0.01254   0.02172   0.00000
   B     -1.27478   3.67997   0.76373   0.01600   0.02773   0.00000
   N     -1.27478   3.67997   3.40127   0.01250   0.02165  -0.00000
   B     -0.00000   2.94397   2.87208   0.01086   0.01879  -0.00000
   N     -0.00000   2.94397   1.29292   0.00848   0.01469   0.00000
   B      1.27478   3.67997   0.76373  -0.00570  -0.02775   0.00006
   N      1.27478   3.67997   3.40127  -0.00444  -0.02171  -0.00004
   B      2.54955   2.94397   2.87208  -0.02117  -0.01882  -0.00009
   N      2.54955   2.94397   1.29292  -0.01654  -0.01471   0.00006
PRIMCOORD 25
     16   1
   B     -0.00000   1.47199   0.76373  -0.00983  -0.01704  -0.00003
   N     -0.00000   1.47199   3.40127  -0.00766  -0.01333   0.00002
   B      1.27478   0.73599   2.87208   0.00984   0.01703  -0.00006
   N      1.27478   0.73599   1.29292   0.00768   0.01332   0.00004
   B      2.54955   1.47199   0.76373  -0.02957   0.01708   0.00007
   N      2.54955   1.47199   3.40127  -0.02315   0.01337  -0.00005
   B      3.82433   0.73599   2.87208   0.02956  -0.01706   0.00009
   N      3.82433   0.73599   1.29292   0.02313  -0.01335  -0.00007
   B     -1.27478   3.67997   0.76373   0.02954  -0.01705   0.00001
   N     -1.27478   3.67997   3.40127   0.02308  -0.01332   0.00000
   B     -0.00000   2.94397   2.87208  -0.02954   0.01706   0.00002
   N     -0.00000   2.94397   1.29292  -0.02310   0.01334  -0.00000
   B      1.27478   3.67997   0.76373   0.00985   0.01702  -0.00003
   N      1.27478   3.67997   3.40127   0.00772   0.01329   0.00002
   B      2.54955   2.94397   2.87208  -0.00984  -0.01704  -0.00006
   N      2.54955   2.94397   1.29292  -0.00770  -0.01331   0.00004
PRIMCOORD 26
     16   1
   B     -0.00000   1.47199   0.76373  -0.02489   0.02279   0.00010
   N     -0.00000   1.47199   3.40127  -0.01946   0.01782  -0.00009
   B      1.27478   0.73599   2.87208   0.03217  -0.01016   0.00003
   N      1.27478   0.73599   1.29292   0.02518  -0.00795  -0.00003
   B      2.54955   1.47199   0.76373  -0.01312  -0.02273  -0.00000
   N      2.54955   1.47199   3.40127  -0.01026  -0.01777   0.00000
   B      3.82433   0.73599   2.87208   0.00583   0.01011  -0.00000
   N      3.82433   0.73599   1.29292   0.00455   0.00788   0.00000
   B     -1.27478   3.67997   0.76373   0.00583   0.01011   0.00000
   N     -1.27478   3.67997   3.40127   0.00455   0.00789  -0.00000
   B     -0.00000   2.94397   2.87208  -0.01313  -0.02274  -0.00000
   N     -0.00000   2.94397   1.29292  -0.01025  -0.01776   0.00000
   B      1.27478   3.67997   0.76373   0.03218  -0.01016  -0.00010
   N      1.27478   3.67997   3.40127   0.02517  -0.00795   0.00009
   B      2.54955   2.94397   2.87208  -0.02488   0.02279  -0.00003
   N      2.54955   2.94397   1.29292  -0.01948   0.01783   0.00003
PRIMCOORD 27
     16   1
   B     -0.00000   1.47199   0.76373   0.01092  -0.00588  -0.02322
   N     -0.00000   1.47199   3.40127   0.00852  -0.00465   0.03100
   B      1.27478   0.73599   2.87208   0.01063  -0.00649   0.02320
   N      1.27478   0.73599   1.29292   0.00839  -0.00507  -0.03102
   B      2.54955   1.47199   0.76373  -0.01064  -0.01844   0.00000
   N      2.54955   1.47199   3.40127  -0.00830  -0.01438  -0.00000
   B      3.82433   0.73599   2.87208  -0.01095  -0.01896  -0.00000
   N      3.82433   0.73599   1.29292  -0.00859  -0.01488   0.00000
   B     -1.27478   3.67997   0.76373   0.01093   0.01893  -0.00000
   N     -1.27478   3.67997   3.40127   0.00852   0.01475   0.00000
   B     -0.00000   2.94397   2.87208   0.01064   0.01842   0.00000
   N     -0.00000   2.94397   1.29292   0.00832   0.01440  -0.00000