[Molden Format]
[FREQ]
    0.00
    0.00
    0.00
  473.28
  473.28
  479.23
  479.23
  479.23
  603.11
  603.12
  603.14
  686.20
  686.20
  686.21
  834.49
  834.52
  834.72
  869.73
  869.95
  869.98
  878.05
  878.13
  878.15
  897.51
  897.52
  897.52
  957.99
  958.05
  958.12
  958.80
  958.80
  969.47
  997.24
  997.24
  997.24
 1019.26
 1019.39
 1019.45
 1026.72
 1056.94
 1056.94
 1090.82
 1090.86
 1090.92
 1120.89
 1120.90
 1120.98
 1121.55
[FR-COORD]
   B          -0.00000        2.78165        1.44323
   N          -0.00000        2.78165        6.42747
   B           2.40898        1.39083        5.42744
   N           2.40898        1.39083        2.44327
   B           4.81796        2.78165        1.44324
   N           4.81796        2.78165        6.42747
   B           7.22694        1.39082        5.42744
   N           7.22694        1.39083        2.44327
   B          -2.40898        6.95413        1.44324
   N          -2.40898        6.95413        6.42747
   B          -0.00000        5.56330        5.42744
   N          -0.00000        5.56330        2.44327
   B           2.40898        6.95413        1.44323
   N           2.40898        6.95413        6.42747
   B           4.81796        5.56330        5.42744
   N           4.81796        5.56330        2.44327
[FR-NORM-COORD]
 vibration     1
  -0.00773   0.00059   0.24988
  -0.00773   0.00059   0.24988
  -0.00773   0.00059   0.24988
  -0.00773   0.00059   0.24988
  -0.00773   0.00059   0.24988
  -0.00773   0.00059   0.24988
  -0.00773   0.00059   0.24988
  -0.00773   0.00059   0.24988
  -0.00773   0.00059   0.24988
  -0.00773   0.00059   0.24988
  -0.00773   0.00059   0.24988
  -0.00773   0.00059   0.24988
  -0.00773   0.00059   0.24988
  -0.00773   0.00059   0.24988
  -0.00773   0.00059   0.24988
  -0.00773   0.00059   0.24988
 vibration     2
  -0.23733  -0.07826  -0.00716
  -0.23733  -0.07826  -0.00716
  -0.23733  -0.07826  -0.00716
  -0.23733  -0.07826  -0.00716
  -0.23733  -0.07826  -0.00716
  -0.23733  -0.07826  -0.00716
  -0.23733  -0.07826  -0.00716
  -0.23733  -0.07826  -0.00716
  -0.23733  -0.07826  -0.00716
  -0.23733  -0.07826  -0.00716
  -0.23733  -0.07826  -0.00716
  -0.23733  -0.07826  -0.00716
  -0.23733  -0.07826  -0.00716
  -0.23733  -0.07826  -0.00716
  -0.23733  -0.07826  -0.00716
  -0.23733  -0.07826  -0.00716
 vibration     3
  -0.07820   0.23744  -0.00298
  -0.07820   0.23744  -0.00298
  -0.07820   0.23744  -0.00298
  -0.07820   0.23744  -0.00298
  -0.07820   0.23744  -0.00298
  -0.07820   0.23744  -0.00298
  -0.07820   0.23744  -0.00298
  -0.07820   0.23744  -0.00298
  -0.07820   0.23744  -0.00298
  -0.07820   0.23744  -0.00298
  -0.07820   0.23744  -0.00298
  -0.07820   0.23744  -0.00298
  -0.07820   0.23744  -0.00298
  -0.07820   0.23744  -0.00298
  -0.07820   0.23744  -0.00298
  -0.07820   0.23744  -0.00298
 vibration     4
   0.12136   0.20973  -0.00002
  -0.12833  -0.22305  -0.00001
  -0.12088  -0.21001  -0.00004
   0.12885   0.22276   0.00000
   0.12000   0.20795   0.00000
  -0.12977  -0.22489   0.00000
  -0.11988  -0.20774  -0.00000
   0.12988   0.22508  -0.00000
   0.11991   0.20780   0.00000
  -0.12987  -0.22505  -0.00000
  -0.12003  -0.20800  -0.00000
   0.12975   0.22485   0.00000
   0.12086   0.21001   0.00002
  -0.12891  -0.22272   0.00001
  -0.12134  -0.20974   0.00004
   0.12839   0.22302  -0.00000
 vibration     5
  -0.20884   0.12044  -0.00000
   0.22401  -0.12930  -0.00001
   0.20881  -0.12055  -0.00001
  -0.22399   0.12922   0.00004
  -0.20917   0.12071   0.00003
   0.22360  -0.12903   0.00010
   0.20869  -0.12043   0.00003
  -0.22419   0.12937  -0.00007
  -0.20867   0.12042   0.00002
   0.22407  -0.12930  -0.00011
   0.20915  -0.12069  -0.00005
  -0.22360   0.12903  -0.00000
  -0.20878   0.12055  -0.00000
   0.22404  -0.12925  -0.00001
   0.20886  -0.12046  -0.00001
  -0.22396   0.12928   0.00004
 vibration     6
  -0.27020  -0.04686  -0.00001
  -0.27872  -0.04990   0.00005
  -0.09443   0.25758  -0.00001
  -0.09607   0.26649  -0.00007
   0.02821   0.04857  -0.00000
   0.02802   0.04823   0.00000
  -0.14947  -0.25919  -0.00000
  -0.15261  -0.26463  -0.00000
   0.14948   0.25921   0.00000
   0.15260   0.26462  -0.00000
  -0.02823  -0.04859   0.00000
  -0.02801  -0.04821   0.00000
   0.09443  -0.25758   0.00001
   0.09606  -0.26648  -0.00005
   0.27020   0.04686   0.00001
   0.27873   0.04989   0.00007
 vibration     7
   0.08736   0.15081  -0.00003
   0.09019   0.15484   0.00002
   0.08770   0.15092   0.00001
   0.08981   0.15539   0.00004
   0.26142  -0.15053  -0.00004
   0.26894  -0.15486   0.00009
   0.26172  -0.15100   0.00001
   0.26869  -0.15502  -0.00019
  -0.26174   0.15102   0.00005
  -0.26864   0.15499  -0.00010
  -0.26141   0.15053   0.00002
  -0.26898   0.15489   0.00009
  -0.08770  -0.15091  -0.00003
  -0.08979  -0.15537   0.00002
  -0.08737  -0.15082   0.00001
  -0.09020  -0.15486   0.00004
 vibration     8
  -0.10173   0.25674  -0.00001
  -0.10391   0.26506  -0.00000
  -0.27300  -0.03991  -0.00004
  -0.28124  -0.04216  -0.00006
  -0.14842  -0.25783  -0.00000
  -0.15183  -0.26375   0.00000
   0.02412   0.04103   0.00000
   0.02412   0.04101  -0.00000
  -0.02413  -0.04103   0.00000
  -0.02417  -0.04108  -0.00000
   0.14843   0.25785   0.00000
   0.15187   0.26383   0.00000
   0.27299   0.03989   0.00001
   0.28128   0.04215   0.00000
   0.10172  -0.25675   0.00004
   0.10388  -0.26503   0.00006
 vibration     9
   0.00578   0.00422  -0.12321
  -0.01298  -0.00924  -0.11926
  -0.00062  -0.00710   0.12324
   0.00168   0.01592   0.11922
  -0.00586   0.00338  -0.19074
   0.01304  -0.00753  -0.18456
   0.00063  -0.00037  -0.43715
  -0.00179   0.00103  -0.42276
   0.00081  -0.00047   0.43714
  -0.00152   0.00088   0.42292
  -0.00582   0.00336   0.19069
   0.01301  -0.00751   0.18449
  -0.00077  -0.00712  -0.12322
   0.00151   0.01586  -0.11926
   0.00584   0.00408   0.12323
  -0.01294  -0.00942   0.11922
 vibration    10
  -0.00282   0.00580   0.22197
   0.00621  -0.01296   0.21489
  -0.00642  -0.00048  -0.22201
   0.01426   0.00113  -0.21481
   0.00282  -0.00163  -0.39625
  -0.00621   0.00358  -0.38320
   0.00643  -0.00371   0.04774
  -0.01426   0.00823   0.04602
   0.00635  -0.00367  -0.04774
  -0.01426   0.00823  -0.04607
   0.00286  -0.00165   0.39627
  -0.00622   0.00359   0.38314
  -0.00643  -0.00046   0.22197
   0.01433   0.00110   0.21488
  -0.00279   0.00580  -0.22201
   0.00615  -0.01291  -0.21481
 vibration    11
  -0.00365   0.00213  -0.35909
   0.00825  -0.00483  -0.34745
   0.00367  -0.00207  -0.35907
  -0.00830   0.00472  -0.34716
   0.00375   0.00649  -0.00000
  -0.00825  -0.01428  -0.00000
  -0.00375  -0.00649  -0.00000
   0.00837   0.01449  -0.00000
  -0.00376  -0.00652   0.00000
   0.00832   0.01441   0.00000
   0.00373   0.00646   0.00000
  -0.00834  -0.01444   0.00000
   0.00367  -0.00210   0.35909
  -0.00830   0.00473   0.34745
  -0.00363   0.00214   0.35907
   0.00824  -0.00482   0.34716
 vibration    12
  -0.26580  -0.07223  -0.00006
   0.26240   0.07124  -0.00028
   0.07045  -0.26636  -0.00009
  -0.06938   0.26281   0.00009
   0.04170   0.07220  -0.00000
  -0.04121  -0.07135  -0.00000
   0.15369   0.26622  -0.00000
  -0.15182  -0.26299  -0.00000
   0.15376   0.26635  -0.00000
  -0.15170  -0.26278  -0.00000
   0.04179   0.07236   0.00000
  -0.04111  -0.07118   0.00000
   0.07034  -0.26632   0.00006
  -0.06949   0.26288   0.00028
  -0.26589  -0.07215   0.00009
   0.26228   0.07131  -0.00009
 vibration    13
  -0.08886  -0.15414   0.00010
   0.08794   0.15214  -0.00003
   0.08886   0.15408  -0.00013
  -0.08780  -0.15214   0.00010
  -0.26689   0.15415   0.00007
   0.26325  -0.15205  -0.00013
   0.26696  -0.15411   0.00005
  -0.26337   0.15203   0.00007
   0.26686  -0.15405  -0.00004
  -0.26353   0.15213  -0.00014
  -0.26690   0.15415  -0.00004
   0.26337  -0.15212   0.00007
   0.08898   0.15400   0.00010
  -0.08770  -0.15220  -0.00003
  -0.08899  -0.15408  -0.00013
   0.08784   0.15220   0.00010
 vibration    14
   0.12808  -0.25691   0.00004
  -0.12645   0.25355   0.00005
  -0.28663  -0.01756  -0.00003
   0.28274   0.01740   0.00001
   0.14842   0.25698   0.00000
  -0.14642  -0.25350   0.00000
   0.01012   0.01763  -0.00000
  -0.00989  -0.01723  -0.00000
   0.01009   0.01757  -0.00000
  -0.00999  -0.01740   0.00000
   0.14837   0.25687   0.00000
  -0.14652  -0.25369  -0.00000
  -0.28656  -0.01758  -0.00004
   0.28284   0.01732  -0.00005
   0.12814  -0.25696   0.00003
  -0.12633   0.25351  -0.00001
 vibration    15
  -0.10757  -0.11955  -0.05880
  -0.01059  -0.01144  -0.05653
  -0.04971  -0.15312  -0.05884
  -0.00465  -0.01545  -0.05662
   0.10742  -0.06202  -0.26478
   0.01057  -0.00610  -0.25374
   0.05013  -0.02894   0.38284
   0.00477  -0.00275   0.36658
  -0.05012   0.02894   0.38221
  -0.00468   0.00270   0.36712
  -0.10771   0.06218  -0.26492
  -0.01105   0.00638  -0.25373
   0.04975   0.15293  -0.05881
   0.00461   0.01489  -0.05653
   0.10775   0.11961  -0.05884
   0.01105   0.01175  -0.05661
 vibration    16
  -0.09121   0.09981  -0.22889
  -0.00927   0.01057  -0.21918
   0.13181  -0.02933  -0.22856
   0.01268  -0.00326  -0.21967
   0.09118  -0.05264   0.31258
   0.00919  -0.00531   0.29899
  -0.13152   0.07593   0.14570
  -0.01273   0.00735   0.13918
   0.13189  -0.07615   0.14510
   0.01366  -0.00789   0.13967
  -0.09122   0.05266   0.31185
  -0.00906   0.00523   0.29959
  -0.13204   0.02908  -0.22889
  -0.01379   0.00275  -0.21919
   0.09131  -0.09949  -0.22855
   0.00916  -0.00935  -0.21966
 vibration    17
  -0.08113   0.04677   0.33481
  -0.00728   0.00421   0.32014
  -0.08092   0.04671  -0.33501
  -0.00738   0.00427  -0.32024
   0.08108   0.14043  -0.00000
   0.00741   0.01283  -0.00000
   0.08110   0.14047  -0.00000
   0.00733   0.01270  -0.00000
  -0.08100  -0.14029  -0.00000
  -0.00750  -0.01299  -0.00000
  -0.08099  -0.14029  -0.00000
  -0.00734  -0.01271  -0.00000
   0.08107  -0.04688  -0.33481
   0.00729  -0.00420  -0.32014
   0.08091  -0.04672   0.33502
   0.00739  -0.00425   0.32024
 vibration    18
   0.07138   0.13119   0.00172
   0.14482   0.26552   0.00091
  -0.07236  -0.12640   0.00648
  -0.14731  -0.25699  -0.00338
  -0.07083   0.04089   0.23665
  -0.14438   0.08335  -0.20766
   0.07167  -0.04138   0.23766
   0.14698  -0.08485  -0.20663
   0.07743  -0.04470  -0.24056
   0.15729  -0.09081   0.20660
  -0.07279   0.04202  -0.25028
  -0.14867   0.08583   0.21275
  -0.07793  -0.12741   0.00172
  -0.15754  -0.25818   0.00091
   0.07329   0.12587   0.00648
   0.14891   0.25606  -0.00339
 vibration    19
  -0.07323   0.04217   0.24133
  -0.14923   0.08613  -0.20874
   0.07273  -0.04200   0.24203
   0.14851  -0.08584  -0.20856
   0.07431   0.12873  -0.00001
   0.14996   0.25978   0.00001
  -0.07378  -0.12777   0.00002
  -0.14917  -0.25834  -0.00001
  -0.07414  -0.12839  -0.00002
  -0.14999  -0.25976   0.00001
   0.07371   0.12768   0.00001
   0.14923   0.25851  -0.00001
   0.07316  -0.04235  -0.24131
   0.14923  -0.08620   0.20872
  -0.07272   0.04198  -0.24205
  -0.14856   0.08569   0.20858
 vibration    20
   0.10540  -0.06093   0.16849
   0.21400  -0.12338  -0.14760
   0.10068  -0.06316  -0.17385
   0.20504  -0.12774   0.14937
  -0.10529   0.06078  -0.15985
  -0.21375   0.12338   0.14079
  -0.10125   0.05847   0.17195
  -0.20494   0.11835  -0.14838
  -0.10578   0.06108  -0.17502
  -0.21391   0.12353   0.14961
  -0.10487   0.06053   0.17395
  -0.21296   0.12293  -0.14582
   0.10545  -0.06081   0.16853
   0.21383  -0.12363  -0.14763
   0.10505  -0.05562  -0.17381
   0.21317  -0.11371   0.14934
 vibration    21
  -0.11736  -0.10404   0.07746
  -0.20481  -0.18191  -0.03552
  -0.03336  -0.15306   0.08030
  -0.05918  -0.26759  -0.03785
   0.11672  -0.06739   0.20383
   0.20429  -0.11795  -0.09565
   0.03491  -0.02015  -0.36037
   0.05964  -0.03443   0.16790
  -0.03234   0.01867  -0.35851
  -0.05515   0.03184   0.16630
  -0.11591   0.06692   0.19954
  -0.20203   0.11664  -0.09181
   0.03142   0.15366   0.07746
   0.05514   0.26832  -0.03552
   0.11587   0.10543   0.08030
   0.20215   0.18505  -0.03785
 vibration    22
  -0.07548   0.10845   0.20193
  -0.13211   0.18883  -0.09499
   0.13852  -0.00753   0.19593
   0.24174  -0.01362  -0.09001
   0.07474  -0.04316  -0.31745
   0.13131  -0.07583   0.15092
  -0.13705   0.07912  -0.08994
  -0.24131   0.13930   0.04252
   0.13176  -0.07606  -0.08604
   0.22973  -0.13262   0.03863
  -0.07611   0.04395  -0.30221
  -0.13278   0.07668   0.13787
  -0.13167   0.01115   0.20189
  -0.22960   0.02000  -0.09497
   0.07577  -0.11619   0.19597
   0.13265  -0.20254  -0.09002
 vibration    23
   0.07987  -0.04659   0.30241
   0.13912  -0.08084  -0.14343
   0.07980  -0.04698  -0.30145
   0.13969  -0.08121   0.14261
  -0.07971  -0.13805   0.00002
  -0.13912  -0.24095  -0.00001
  -0.08024  -0.13900   0.00000
  -0.13975  -0.24208  -0.00000
   0.08019   0.13891   0.00000
   0.13987   0.24229  -0.00000
   0.08073   0.13982   0.00002
   0.14010   0.24265  -0.00001
  -0.08027   0.04587  -0.30243
  -0.13954   0.08006   0.14344
  -0.08060   0.04563   0.30143
  -0.14019   0.08039  -0.14260
 vibration    24
  -0.21184  -0.18806  -0.00064
  -0.16580  -0.14693   0.00039
  -0.05718  -0.27744   0.00091
  -0.04475  -0.21687  -0.00056
   0.10872   0.18822  -0.00000
   0.08525   0.14759   0.00000
   0.16020   0.27758  -0.00000
   0.12537   0.21723   0.00000
   0.16004   0.27730   0.00000
   0.12496   0.21652  -0.00000
   0.10855   0.18792  -0.00000
   0.08484   0.14687   0.00000
  -0.05697  -0.27754   0.00064
  -0.04436  -0.21709  -0.00039
  -0.21166  -0.18819  -0.00091
  -0.16542  -0.14715   0.00056
 vibration    25
  -0.09829  -0.17040  -0.00034
  -0.07656  -0.13327   0.00019
   0.09840   0.17034  -0.00058
   0.07678   0.13317   0.00042
  -0.29575   0.17076   0.00071
  -0.23147   0.13365  -0.00050
   0.29556  -0.17058   0.00090
   0.23128  -0.13348  -0.00074
   0.29544  -0.17051   0.00010
   0.23083  -0.13322   0.00000
  -0.29541   0.17057   0.00017
  -0.23097   0.13336  -0.00001
   0.09845   0.17022  -0.00034
   0.07715   0.13287   0.00019
  -0.09842  -0.17041  -0.00058
  -0.07702  -0.13310   0.00042
 vibration    26
  -0.24890   0.22793   0.00101
  -0.19465   0.17824  -0.00088
   0.32173  -0.10156   0.00026
   0.25177  -0.07953  -0.00027
  -0.13121  -0.22730  -0.00000
  -0.10259  -0.17773   0.00000
   0.05834   0.10109  -0.00000
   0.04549   0.07882   0.00000
   0.05832   0.10106   0.00000
   0.04554   0.07892  -0.00000
  -0.13125  -0.22738  -0.00000
  -0.10252  -0.17761   0.00000
   0.32182  -0.10161  -0.00101
   0.25168  -0.07947   0.00088
  -0.24881   0.22787  -0.00026
  -0.19475   0.17829   0.00027
 vibration    27
   0.10923  -0.05883  -0.23225
   0.08524  -0.04653   0.30996
   0.10626  -0.06488   0.23202
   0.08390  -0.05075  -0.31017
  -0.10644  -0.18435   0.00000
  -0.08301  -0.14377  -0.00000
  -0.10945  -0.18958  -0.00000
  -0.08591  -0.14880   0.00000
   0.10929   0.18930  -0.00000
   0.08515   0.14749   0.00000
   0.10637   0.18423   0.00000
   0.08316   0.14403  -0.00000
  -0.10557   0.06518   0.23225
  -0.08292   0.05055  -0.30996
  -0.10932   0.05958  -0.23201
  -0.08590   0.04728   0.31017
 vibration    28
  -0.12107  -0.17652  -0.01180
  -0.09443  -0.13822   0.01550
  -0.09288  -0.19344  -0.01184
  -0.07280  -0.15114   0.01600
   0.11494  -0.06636  -0.22064
   0.08942  -0.05163   0.29398
   0.09995  -0.05771   0.24452
   0.07718  -0.04456  -0.32591
  -0.09947   0.05743   0.24470
  -0.07689   0.04439  -0.32609
  -0.11490   0.06634  -0.22148
  -0.08944   0.05164   0.29517
   0.09233   0.19311  -0.01180
   0.07249   0.15089   0.01549
   0.12108   0.17715  -0.01184
   0.09449   0.13862   0.01600
 vibration    29
   0.15598  -0.10836   0.16417
   0.12130  -0.08414  -0.21951
  -0.17177   0.08110   0.16411
  -0.13337   0.06325  -0.21911
  -0.13136   0.07584  -0.17960
  -0.10327   0.05963   0.24034
   0.14643  -0.08454  -0.14652
   0.11572  -0.06681   0.19645
  -0.14599   0.08429  -0.14667
  -0.11534   0.06659   0.19637
   0.13093  -0.07559  -0.18113
   0.10296  -0.05945   0.24204
   0.17183  -0.08091   0.16417
   0.13352  -0.06297  -0.21951
  -0.15612   0.10821   0.16411
  -0.12146   0.08388  -0.21911
 vibration    30
  -0.14235  -0.24921  -0.00231
  -0.10232  -0.17937   0.00314
   0.14469   0.24788   0.00239
   0.10422   0.17826  -0.00322
  -0.14461  -0.25043  -0.00000
  -0.10427  -0.18056   0.00000
   0.14226   0.24637  -0.00000
   0.10237   0.17727   0.00000
  -0.14225  -0.24635  -0.00000
  -0.10236  -0.17727   0.00000
   0.14462   0.25046  -0.00000
   0.10425   0.18054   0.00000
  -0.14468  -0.24787   0.00231
  -0.10420  -0.17828  -0.00314
   0.14235   0.24923  -0.00239
   0.10229   0.17937   0.00322
 vibration    31
   0.23943  -0.14077  -0.00920
   0.17179  -0.10120   0.01272
  -0.24155   0.13707  -0.00654
  -0.17351   0.09816   0.00847
   0.25698  -0.14839   0.00443
   0.18542  -0.10707  -0.00572
  -0.25469   0.14707   0.01095
  -0.18381   0.10614  -0.01520
   0.25476  -0.14711   0.00862
   0.18380  -0.10613  -0.01121
  -0.25691   0.14835   0.00731
  -0.18559   0.10717  -0.01013
   0.24161  -0.13700  -0.00920
   0.17352  -0.09820   0.01272
  -0.23946   0.14068  -0.00655
  -0.17174   0.10121   0.00847
 vibration    32
   0.00102  -0.00077   0.18592
  -0.00030   0.00090  -0.30158
  -0.00203   0.00089  -0.18599
  -0.00321   0.00240   0.30166
   0.00227  -0.00131   0.18511
   0.00352  -0.00203  -0.30184
  -0.00268   0.00155  -0.18345
   0.00108  -0.00062   0.30042
   0.00393  -0.00227   0.18463
   0.00265  -0.00153  -0.30070
  -0.00048   0.00027  -0.18382
  -0.00024   0.00014   0.30017
   0.00118  -0.00049   0.18592
  -0.00092  -0.00019  -0.30158
  -0.00179   0.00131  -0.18599
  -0.00369   0.00158   0.30166
 vibration    33
  -0.26522  -0.13517  -0.00026
   0.19929   0.10154   0.00024
  -0.01557   0.29737  -0.00029
   0.01178  -0.22348   0.00020
   0.07807   0.13510   0.00000
  -0.05862  -0.10145  -0.00000
  -0.17175  -0.29760  -0.00000
   0.12874   0.22307   0.00000
   0.17178   0.29766   0.00000
  -0.12888  -0.22332  -0.00000
  -0.07808  -0.13512  -0.00000
   0.05875   0.10167   0.00000
   0.01552  -0.29733   0.00026
  -0.01168   0.22341  -0.00024
   0.26528   0.13514   0.00029
  -0.19940  -0.10149  -0.00020
 vibration    34
   0.19863  -0.26776  -0.00020
  -0.14903   0.20104   0.00028
   0.33130  -0.03856   0.00007
  -0.24855   0.02875  -0.00022
   0.15434   0.26778  -0.00000
  -0.11601  -0.20127   0.00000
   0.02164   0.03794   0.00000
  -0.01649  -0.02891  -0.00000
  -0.02186  -0.03833   0.00000
   0.01659   0.02908   0.00000
  -0.15412  -0.26741   0.00000
   0.11594   0.20116  -0.00000
  -0.33107   0.03837   0.00020
   0.24852  -0.02872  -0.00028
  -0.19891   0.26787  -0.00007
   0.14908  -0.20105   0.00021
 vibration    35
   0.10057   0.17309   0.00063
  -0.07499  -0.12977  -0.00097
   0.10014   0.17349  -0.00056
  -0.07533  -0.12944   0.00080
   0.29954  -0.17274   0.00056
  -0.22551   0.13005  -0.00092
   0.30002  -0.17311  -0.00020
  -0.22509   0.12988   0.00076
  -0.29999   0.17310  -0.00001
   0.22518  -0.12993  -0.00023
  -0.29951   0.17272  -0.00027
   0.22568  -0.13014   0.00057
  -0.10006  -0.17349   0.00063
   0.07522   0.12971  -0.00097
  -0.10054  -0.17317  -0.00056
   0.07470   0.12972   0.00080
 vibration    36
  -0.07570   0.03144   0.22323
  -0.17946   0.07564  -0.16761
  -0.06587   0.04950  -0.22554
  -0.15538   0.11772   0.16938
   0.07588  -0.04381  -0.19391
   0.17943  -0.10359   0.14845
   0.06599  -0.03810   0.25714
   0.15516  -0.08959  -0.19627
   0.06581  -0.03799  -0.25962
   0.15471  -0.08933   0.19815
   0.07648  -0.04415   0.19200
   0.17910  -0.10340  -0.14692
  -0.06508   0.04984   0.22324
  -0.15524   0.11759  -0.16761
  -0.07581   0.03230  -0.22553
  -0.17964   0.07570   0.16938
 vibration    37
  -0.04288  -0.09084  -0.02293
  -0.10124  -0.21450   0.01736
   0.05768   0.08244   0.02327
   0.13556   0.19490  -0.01744
   0.04303  -0.02485   0.34162
   0.10143  -0.05857  -0.25895
  -0.05789   0.03343   0.29554
  -0.13572   0.07836  -0.22367
  -0.05688   0.03284  -0.29487
  -0.13535   0.07815   0.22314
   0.04276  -0.02469  -0.34124
   0.10079  -0.05820   0.25831
   0.05723   0.08255  -0.02295
   0.13514   0.19494   0.01738
  -0.04256  -0.09118   0.02325
  -0.10100  -0.21486  -0.01743
 vibration    38
   0.05049  -0.02942   0.31958
   0.11930  -0.06861  -0.24182
  -0.05052   0.02928   0.31986
  -0.11912   0.06859  -0.24250
  -0.05051  -0.08748  -0.00001
  -0.11903  -0.20617   0.00001
   0.05021   0.08696  -0.00001
   0.11906   0.20620   0.00001
   0.05068   0.08777   0.00001
   0.11896   0.20603  -0.00001
  -0.05047  -0.08741   0.00001
  -0.11887  -0.20588  -0.00001
  -0.05073   0.02901  -0.31957
  -0.11908   0.06900   0.24182
   0.05062  -0.02910  -0.31986
   0.11896  -0.06885   0.24250
 vibration    39
  -0.00055   0.00039   0.28043
  -0.00070   0.00052  -0.21607
  -0.00030   0.00005   0.27906
  -0.00057   0.00025  -0.21537
   0.00052  -0.00030   0.27891
   0.00076  -0.00044  -0.21529
   0.00024  -0.00014   0.28096
   0.00060  -0.00035  -0.21717
   0.00064  -0.00037   0.27911
   0.00077  -0.00045  -0.21541
   0.00021  -0.00012   0.28116
   0.00049  -0.00028  -0.21731
  -0.00062   0.00028   0.28043
  -0.00080   0.00035  -0.21607
  -0.00020   0.00023   0.27906
  -0.00050   0.00037  -0.21537
 vibration    40
   0.13881   0.24303   0.00015
  -0.10704  -0.18766  -0.00022
   0.13837   0.24327  -0.00002
  -0.10696  -0.18772   0.00011
   0.13845   0.24288   0.00000
  -0.10693  -0.18758  -0.00000
   0.13886   0.24359   0.00000
  -0.10702  -0.18774   0.00000
   0.13880   0.24350  -0.00000
  -0.10698  -0.18767  -0.00000
   0.13838   0.24276  -0.00000
  -0.10689  -0.18753   0.00000
   0.13840   0.24327  -0.00015
  -0.10694  -0.18771   0.00022
   0.13882   0.24300   0.00002
  -0.10703  -0.18767  -0.00011
 vibration    41
   0.24337  -0.13864  -0.00032
  -0.18744   0.10692   0.00031
   0.24309  -0.13882   0.00025
  -0.18750   0.10680  -0.00026
   0.24288  -0.13845  -0.00003
  -0.18789   0.10711   0.00009
   0.24324  -0.13865  -0.00005
  -0.18775   0.10702  -0.00003
   0.24302  -0.13853   0.00010
  -0.18788   0.10710   0.00001
   0.24308  -0.13857   0.00018
  -0.18789   0.10711  -0.00023
   0.24329  -0.13878  -0.00032
  -0.18750   0.10681   0.00031
   0.24331  -0.13845   0.00026
  -0.18743   0.10692  -0.00026
 vibration    42
  -0.20343   0.11775   0.00077
   0.07300  -0.04249   0.01782
   0.20359  -0.11736   0.00084
  -0.07332   0.04206   0.01753
   0.20361   0.35268   0.00000
  -0.07297  -0.12640   0.00000
  -0.20371  -0.35286   0.00000
   0.07319   0.12678   0.00000
  -0.20334  -0.35220  -0.00000
   0.07286   0.12620  -0.00000
   0.20403   0.35341  -0.00000
  -0.07334  -0.12703  -0.00000
   0.20368  -0.11732  -0.00077
  -0.07329   0.04199  -0.01782
  -0.20341   0.11766  -0.00084
   0.07308  -0.04247  -0.01753
 vibration    43
   0.23012   0.33539   0.00008
  -0.08234  -0.11999   0.00112
  -0.17518  -0.36721   0.00004
   0.06284   0.13162  -0.00116
  -0.23013   0.13285   0.00078
   0.08253  -0.04764   0.01623
   0.17493  -0.10098   0.00083
  -0.06282   0.03626   0.01892
   0.17528  -0.10119  -0.00118
  -0.06269   0.03619  -0.01866
  -0.23053   0.13308  -0.00082
   0.08267  -0.04772  -0.01631
  -0.17540  -0.36698   0.00008
   0.06275   0.13130   0.00112
   0.23044   0.33530   0.00004
  -0.08257  -0.12023  -0.00115
 vibration    44
   0.26726  -0.19975   0.00147
  -0.09577   0.07159   0.01317
   0.30576  -0.13200  -0.00145
  -0.10972   0.04731  -0.01318
  -0.26731   0.15433   0.00061
   0.09586  -0.05534  -0.01348
  -0.30583   0.17657  -0.00043
   0.10972  -0.06335   0.00982
  -0.30656   0.17699   0.00060
   0.10988  -0.06344  -0.01031
  -0.26720   0.15427   0.00004
   0.09579  -0.05531   0.01332
   0.30661  -0.13158   0.00147
  -0.10988   0.04714   0.01317
   0.26720  -0.19879  -0.00145
  -0.09583   0.07136  -0.01318
 vibration    45
   0.28599   0.09704  -0.08244
  -0.20381  -0.06909  -0.01393
  -0.05917   0.29571  -0.08497
   0.04216  -0.21100  -0.01493
  -0.28595   0.16510  -0.02515
   0.20406  -0.11782  -0.00406
   0.05898  -0.03404   0.19262
  -0.04217   0.02434   0.03291
  -0.05889   0.03399   0.19522
   0.04210  -0.02430   0.03380
   0.28558  -0.16488  -0.02772
  -0.20392   0.11774  -0.00503
   0.05896  -0.29620  -0.08243
  -0.04208   0.21106  -0.01393
  -0.28567  -0.09662  -0.08498
   0.20380   0.06899  -0.01493
 vibration    46
   0.03816  -0.30354  -0.07973
  -0.02724   0.21644  -0.01455
  -0.28258  -0.11842  -0.07597
   0.20171   0.08454  -0.01232
  -0.03823   0.02206   0.19462
   0.02735  -0.01578   0.03264
   0.28240  -0.16305  -0.03879
  -0.20167   0.11644  -0.00582
  -0.28193   0.16278  -0.04234
   0.20114  -0.11614  -0.00820
   0.03863  -0.02229   0.19806
  -0.02761   0.01594   0.03501
   0.28194   0.11873  -0.07973
  -0.20106  -0.08463  -0.01455
  -0.03874   0.30394  -0.07596
   0.02765  -0.21696  -0.01232
 vibration    47
   0.16654  -0.09610   0.16176
  -0.11899   0.06862   0.02807
   0.16621  -0.09595  -0.16192
  -0.11888   0.06860  -0.02795
  -0.16653  -0.28843  -0.00001
   0.11904   0.20618  -0.00000
  -0.16612  -0.28771   0.00001
   0.11887   0.20588   0.00000
   0.16655   0.28847   0.00000
  -0.11902  -0.20615   0.00000
   0.16617   0.28780  -0.00000
  -0.11888  -0.20590  -0.00000
  -0.16650   0.09616  -0.16176
   0.11893  -0.06873  -0.02807
  -0.16621   0.09594   0.16192
   0.11885  -0.06864   0.02795
 vibration    48
  -0.00151  -0.00151   0.31903
   0.00119   0.00106   0.15154
  -0.00238  -0.00152  -0.31935
   0.00169   0.00095  -0.15158
   0.00163  -0.00094   0.32093
  -0.00124   0.00072   0.15171
   0.00243  -0.00140  -0.32063
  -0.00175   0.00101  -0.15160
  -0.00055   0.00032   0.31874
   0.00031  -0.00018   0.15123
  -0.00013   0.00008  -0.31845
  -0.00004   0.00002  -0.15120
   0.00055   0.00206   0.31903
  -0.00032  -0.00157   0.15154
   0.00012   0.00282  -0.31935
   0.00002  -0.00194  -0.15158
