
                           ***********************       
                           *  WELCOME TO SIESTA  *       
                           ***********************       

reinit: Reading from standard input
reinit: Dumped input in INPUT_TMP.73161
************************** Dump of input data file ****************************
SystemName            nzeta
SystemLabel           nzeta
NumberOfSpecies         2
NumberOfAtoms          16
%block Chemical_Species_label
   1   5     B
   2   7     N
%endblock Chemical_Species_label
PAO.BasisType         split
PAO.BasisSize         DZP
PAO.EnergyShift       50  meV
LatticeConstant      1.0   Ang
#%block LatticeParameters
#4.7890    4.7890    4.1537   90.0000   90.0000  120.0000
#%endblock LatticeParameters
%block LatticeVectors
    5.012954616    0.000024807    0.000000115
   -2.506455827    4.341358452   -0.000000115
    0.000000145   -0.000000085    6.336166021
%endblock LatticeVectors
MeshCutoff            200. Ry       # Mesh cutoff. real space mesh
kgrid_cutoff        20. Ang
#%block kgrid_Monkhorst_Pack
# 1  0  0  0.0
# 0  1  0  0.0
# 0  0  1  0.0
#%endblock kgrid_Monkhorst_Pack
#
BandLinesScale  pi/a
#
XC.Functional          GGA
XC.Authors             PBE
MaxSCFIterations       200
DM.NumberPulay         10           # One Pulay every 5 iter
DM.MixingWeight       0.30          # New DM amount for next SCF cycle
DM.Tolerance          1.0d-5        # Tolerance in maximum difference
DM.UseSaveDM          true          # to use continuae..ion files
Diag.DivideAndConquer   false
Diag.ParallelOverK      true
SolutionMethod        diagon        # OrderN or Diagon
ElectronicTemperature  25 meV       # Temp. for Fermi smearing
# SpinPolarized         true
# MD options
MD.VariableCell        TRUE
MD.TypeOfRun           CG
MD.NumCGsteps          100
MD.MaxCGDispl          0.01 Ang
MD.MaxForceTol         0.008 eV/Ang
MD.TargetPressure      5.0 GPa
MD.MaxStressTol        0.05 GPa
%block AtomicCoordinateOrigin
0.000 0.000 0.000
%endblock AtomicCoordinateOrigin
WriteDM                true
WriteEigenvalues       true
WriteCoorXmol          true
WriteMDXmol            true
WriteMDHistory         true
WriteXml               false
MD.UseSaveCG           true
MD.UseSaveXV           true
# Atomic  inates
AtomicCoordinatesFormat  Ang    # Format for  inates
AtomCoorFormatOut        Ang
%block AtomicCoordinatesAndAtomicSpecies
 0.00002     1.44712     1.33428     1
 1.25323     0.72357     4.50189     1
 0.00002     1.44712     5.00195     2
 1.25323     0.72357     1.83422     2
 2.50649     1.44713     1.33428     1
 3.75971     0.72359     4.50189     1
 2.50649     1.44713     5.00195     2
 3.75971     0.72359     1.83422     2
-1.25321     3.61780     1.33428     1
 0.00001     2.89425     4.50189     1
-1.25321     3.61780     5.00195     2
 0.00001     2.89425     1.83422     2
 1.25327     3.61781     1.33428     1
 2.50648     2.89426     4.50189     1
 1.25327     3.61781     5.00195     2
 2.50648     2.89426     1.83422     2
%endblock AtomicCoordinatesAndAtomicSpecies
************************** End of input data file *****************************

reinit: -----------------------------------------------------------------------
reinit: System Name: nzeta
reinit: -----------------------------------------------------------------------
reinit: System Label: nzeta
reinit: -----------------------------------------------------------------------
Siesta Version: siesta-4.1--736
Architecture  : unknown
Compiler flags: mpifort -fPIC -O2 -xCore-AVX2 -ftz -fp-speculation=safe -fp-model source
PP flags      : -DFC_HAVE_ABORT -DMPI -DCDF -I/cvmfs/soft.computecanada.ca/easybuild/softwaree/2017/avx2/Compiler/intel2018.3/netcdf-fortran/4.4.4/include
Libraries     : -Wl,-Bstatic -Wl,--start-group -lmkl_scalapack_lp64 -lmkl_blacs_openmpi_lp64  -lmkl_intel_lp64 -lmkl_sequential -lmkl_core -Wl,--end-group -Wl,-Bdynamic -lnetcdff
PARALLEL version
NetCDF support

* Running on 8 nodes in parallel
>> Start of run:  24-NOV-2020  12:48:29

initatom: Reading input for the pseudopotentials and atomic orbitals ----------
Species number:   1 Atomic number:    5 Label: B
Species number:   2 Atomic number:    7 Label: N
 
Ground state valence configuration:   2s02  2p01
Reading pseudopotential information in formatted form from B.psf

Valence configuration for pseudopotential generation:
2s( 2.00) rc: 1.74
2p( 1.00) rc: 1.74
3d( 0.00) rc: 1.74
4f( 0.00) rc: 1.74
Ground state valence configuration:   2s02  2p03
Reading pseudopotential information in formatted form from N.psf

Valence configuration for pseudopotential generation:
2s( 2.00) rc: 1.48
2p( 3.00) rc: 1.48
3d( 0.00) rc: 1.48
4f( 0.00) rc: 1.48
For B, standard SIESTA heuristics set lmxkb to 3
 (one more than the basis l, including polarization orbitals).
Use PS.lmax or PS.KBprojectors blocks to override.
For N, standard SIESTA heuristics set lmxkb to 3
 (one more than the basis l, including polarization orbitals).
Use PS.lmax or PS.KBprojectors blocks to override.

<basis_specs>
===============================================================================
B                    Z=   5    Mass=  10.810        Charge= 0.17977+309
Lmxo=1 Lmxkb= 3    BasisType=split      Semic=F
L=0  Nsemic=0  Cnfigmx=2
          n=1  nzeta=2  polorb=0
            splnorm:   0.15000    
               vcte:    0.0000    
               rinn:    0.0000    
               qcoe:    0.0000    
               qyuk:    0.0000    
               qwid:   0.10000E-01
                rcs:    0.0000      0.0000    
            lambdas:    1.0000      1.0000    
L=1  Nsemic=0  Cnfigmx=2
          n=1  nzeta=2  polorb=1
            splnorm:   0.15000    
               vcte:    0.0000    
               rinn:    0.0000    
               qcoe:    0.0000    
               qyuk:    0.0000    
               qwid:   0.10000E-01
                rcs:    0.0000      0.0000    
            lambdas:    1.0000      1.0000    
-------------------------------------------------------------------------------
L=0  Nkbl=1  erefs: 0.17977+309
L=1  Nkbl=1  erefs: 0.17977+309
L=2  Nkbl=1  erefs: 0.17977+309
L=3  Nkbl=1  erefs: 0.17977+309
===============================================================================
</basis_specs>

atom: Called for B                     (Z =   5)

read_vps: Pseudopotential generation method:
read_vps: ATM3      Troullier-Martins                       
Total valence charge:    3.00000

read_vps: Pseudopotential includes a core correction:
read_vps: Pseudo-core for xc-correction

xc_check: Exchange-correlation functional:
xc_check: GGA Perdew, Burke & Ernzerhof 1996
V l=0 = -2*Zval/r beyond r=  1.7165
V l=1 = -2*Zval/r beyond r=  1.7165
V l=2 = -2*Zval/r beyond r=  1.7165
V l=3 = -2*Zval/r beyond r=  1.6951
All V_l potentials equal beyond r=  1.7165
This should be close to max(r_c) in ps generation
All pots = -2*Zval/r beyond r=  1.7165

VLOCAL1: 99.0% of the norm of Vloc inside     14.733 Ry
VLOCAL1: 99.9% of the norm of Vloc inside     33.577 Ry
atom: Maximum radius for 4*pi*r*r*local-pseudopot. charge    2.04484
atom: Maximum radius for r*vlocal+2*Zval:    1.75994
GHOST: No ghost state for L =  0
GHOST: No ghost state for L =  1
GHOST: No ghost state for L =  2
GHOST: No ghost state for L =  3

KBgen: Kleinman-Bylander projectors: 
   l= 0   rc=  1.897051   el= -0.693730   Ekb=  4.595746   kbcos=  0.286105
   l= 1   rc=  1.920920   el= -0.265236   Ekb= -2.350715   kbcos= -0.315747
   l= 2   rc=  2.044840   el=  0.002055   Ekb= -0.690767   kbcos= -0.013822
   l= 3   rc=  2.149707   el=  0.003188   Ekb= -0.315358   kbcos= -0.002055

KBgen: Total number of  Kleinman-Bylander projectors:   16
atom: -------------------------------------------------------------------------

atom: SANKEY-TYPE ORBITALS:
atom: Selected multiple-zeta basis: split     

SPLIT: Orbitals with angular momentum L= 0

SPLIT: Basis orbitals for state 2s

SPLIT: PAO cut-off radius determined from an
SPLIT: energy shift=  0.003675 Ry

   izeta = 1
                 lambda =    1.000000
                     rc =    5.992324
                 energy =   -0.690528
                kinetic =    0.558121
    potential(screened) =   -1.248649
       potential(ionic) =   -3.246844

   izeta = 2
                 rmatch =    4.275693
              splitnorm =    0.150000
                 energy =   -0.596762
                kinetic =    0.870329
    potential(screened) =   -1.467091
       potential(ionic) =   -3.591550

SPLIT: Orbitals with angular momentum L= 1

SPLIT: Basis orbitals for state 2p

SPLIT: PAO cut-off radius determined from an
SPLIT: energy shift=  0.003675 Ry

   izeta = 1
                 lambda =    1.000000
                     rc =    7.504449
                 energy =   -0.261978
                kinetic =    1.444196
    potential(screened) =   -1.706173
       potential(ionic) =   -3.607531

   izeta = 2
                 rmatch =    4.725423
              splitnorm =    0.150000
                 energy =   -0.178742
                kinetic =    2.159898
    potential(screened) =   -2.338640
       potential(ionic) =   -4.437503

POLgen: Perturbative polarization orbital with L=  2

POLgen: Polarization orbital for state 2p

   izeta = 1
                     rc =    7.504449
                 energy =    0.624150
                kinetic =    1.361189
    potential(screened) =   -0.737039
       potential(ionic) =   -2.313842
atom: Total number of Sankey-type orbitals: 13

atm_pop: Valence configuration (for local Pseudopot. screening):
 2s( 2.00)                                                            
 2p( 1.00)                                                            
Vna: chval, zval:    3.00000   3.00000

Vna:  Cut-off radius for the neutral-atom potential:   7.504449
comcore: Pseudo-core radius Rcore=  2.122997

atom: _________________________________________________________________________

<basis_specs>
===============================================================================
N                    Z=   7    Mass=  14.010        Charge= 0.17977+309
Lmxo=1 Lmxkb= 3    BasisType=split      Semic=F
L=0  Nsemic=0  Cnfigmx=2
          n=1  nzeta=2  polorb=0
            splnorm:   0.15000    
               vcte:    0.0000    
               rinn:    0.0000    
               qcoe:    0.0000    
               qyuk:    0.0000    
               qwid:   0.10000E-01
                rcs:    0.0000      0.0000    
            lambdas:    1.0000      1.0000    
L=1  Nsemic=0  Cnfigmx=2
          n=1  nzeta=2  polorb=1
            splnorm:   0.15000    
               vcte:    0.0000    
               rinn:    0.0000    
               qcoe:    0.0000    
               qyuk:    0.0000    
               qwid:   0.10000E-01
                rcs:    0.0000      0.0000    
            lambdas:    1.0000      1.0000    
-------------------------------------------------------------------------------
L=0  Nkbl=1  erefs: 0.17977+309
L=1  Nkbl=1  erefs: 0.17977+309
L=2  Nkbl=1  erefs: 0.17977+309
L=3  Nkbl=1  erefs: 0.17977+309
===============================================================================
</basis_specs>

atom: Called for N                     (Z =   7)

read_vps: Pseudopotential generation method:
read_vps: ATM3      Troullier-Martins                       
Total valence charge:    5.00000

read_vps: Pseudopotential includes a core correction:
read_vps: Pseudo-core for xc-correction

xc_check: Exchange-correlation functional:
xc_check: GGA Perdew, Burke & Ernzerhof 1996
V l=0 = -2*Zval/r beyond r=  1.4606
V l=1 = -2*Zval/r beyond r=  1.4606
V l=2 = -2*Zval/r beyond r=  1.4606
V l=3 = -2*Zval/r beyond r=  1.4606
All V_l potentials equal beyond r=  1.4606
This should be close to max(r_c) in ps generation
All pots = -2*Zval/r beyond r=  1.4606

VLOCAL1: 99.0% of the norm of Vloc inside     20.347 Ry
VLOCAL1: 99.9% of the norm of Vloc inside     46.372 Ry
atom: Maximum radius for 4*pi*r*r*local-pseudopot. charge    1.76189
atom: Maximum radius for r*vlocal+2*Zval:    1.53550
GHOST: No ghost state for L =  0
GHOST: No ghost state for L =  1
GHOST: No ghost state for L =  2
GHOST: No ghost state for L =  3

KBgen: Kleinman-Bylander projectors: 
   l= 0   rc=  1.634559   el= -1.363963   Ekb=  5.296955   kbcos=  0.335621
   l= 1   rc=  1.614250   el= -0.521451   Ekb= -5.259161   kbcos= -0.433408
   l= 2   rc=  1.718383   el=  0.001991   Ekb= -1.271464   kbcos= -0.007566
   l= 3   rc=  1.761893   el=  0.003093   Ekb= -0.494769   kbcos= -0.001015

KBgen: Total number of  Kleinman-Bylander projectors:   16
atom: -------------------------------------------------------------------------

atom: SANKEY-TYPE ORBITALS:
atom: Selected multiple-zeta basis: split     

SPLIT: Orbitals with angular momentum L= 0

SPLIT: Basis orbitals for state 2s

SPLIT: PAO cut-off radius determined from an
SPLIT: energy shift=  0.003675 Ry

   izeta = 1
                 lambda =    1.000000
                     rc =    4.388595
                 energy =   -1.360245
                kinetic =    1.158929
    potential(screened) =   -2.519174
       potential(ionic) =   -8.027872

   izeta = 2
                 rmatch =    2.941647
              splitnorm =    0.150000
                 energy =   -1.183606
                kinetic =    1.761198
    potential(screened) =   -2.944804
       potential(ionic) =   -8.851642

SPLIT: Orbitals with angular momentum L= 1

SPLIT: Basis orbitals for state 2p

SPLIT: PAO cut-off radius determined from an
SPLIT: energy shift=  0.003675 Ry

   izeta = 1
                 lambda =    1.000000
                     rc =    5.496027
                 energy =   -0.517878
                kinetic =    3.386838
    potential(screened) =   -3.904716
       potential(ionic) =   -9.203549

   izeta = 2
                 rmatch =    3.092486
              splitnorm =    0.150000
                 energy =   -0.339364
                kinetic =    5.009477
    potential(screened) =   -5.348841
       potential(ionic) =  -11.257254

POLgen: Perturbative polarization orbital with L=  2

POLgen: Polarization orbital for state 2p

   izeta = 1
                     rc =    5.496027
                 energy =    1.497880
                kinetic =    3.066405
    potential(screened) =   -1.568525
       potential(ionic) =   -5.774358
atom: Total number of Sankey-type orbitals: 13

atm_pop: Valence configuration (for local Pseudopot. screening):
 2s( 2.00)                                                            
 2p( 3.00)                                                            
Vna: chval, zval:    5.00000   5.00000

Vna:  Cut-off radius for the neutral-atom potential:   5.496027
comcore: Pseudo-core radius Rcore=  1.554824

atom: _________________________________________________________________________

prinput: Basis input ----------------------------------------------------------

PAO.BasisType split     

%block ChemicalSpeciesLabel
    1    5 B                       # Species index, atomic number, species label
    2    7 N                       # Species index, atomic number, species label
%endblock ChemicalSpeciesLabel

%block PAO.Basis                 # Define Basis set
B                     2                    # Species label, number of l-shells
 n=2   0   2                         # n, l, Nzeta 
   5.992      4.276   
   1.000      1.000   
 n=2   1   2 P   1                   # n, l, Nzeta, Polarization, NzetaPol
   7.504      4.725   
   1.000      1.000   
N                     2                    # Species label, number of l-shells
 n=2   0   2                         # n, l, Nzeta 
   4.389      2.942   
   1.000      1.000   
 n=2   1   2 P   1                   # n, l, Nzeta, Polarization, NzetaPol
   5.496      3.092   
   1.000      1.000   
%endblock PAO.Basis

prinput: ----------------------------------------------------------------------

Dumping basis to NetCDF file B.ion.nc
Dumping basis to NetCDF file N.ion.nc
coor:   Atomic-coordinates input format  =     Cartesian coordinates
coor:                                          (in Angstroms)

siesta: WARNING: XV file not found

siesta: Atomic coordinates (Bohr) and species
siesta:      0.00004   2.73466   2.52142  1        1
siesta:      2.36826   1.36735   8.50734  1        2
siesta:      0.00004   2.73466   9.45232  2        3
siesta:      2.36826   1.36735   3.46617  2        4
siesta:      4.73658   2.73468   2.52142  1        5
siesta:      7.10483   1.36739   8.50734  1        6
siesta:      4.73658   2.73468   9.45232  2        7
siesta:      7.10483   1.36739   3.46617  2        8
siesta:     -2.36822   6.83665   2.52142  1        9
siesta:      0.00002   5.46934   8.50734  1       10
siesta:     -2.36822   6.83665   9.45232  2       11
siesta:      0.00002   5.46934   3.46617  2       12
siesta:      2.36834   6.83667   2.52142  1       13
siesta:      4.73656   5.46936   8.50734  1       14
siesta:      2.36834   6.83667   9.45232  2       15
siesta:      4.73656   5.46936   3.46617  2       16

siesta: System type = bulk      

initatomlists: Number of atoms, orbitals, and projectors:     16   208   256

coxmol: Writing XMOL coordinates into file nzeta.xyz                                                           

siesta: ******************** Simulation parameters ****************************
siesta:
siesta: The following are some of the parameters of the simulation.
siesta: A complete list of the parameters used, including default values,
siesta: can be found in file out.fdf
siesta:
redata: Spin configuration                          = none
redata: Number of spin components                   = 1
redata: Time-Reversal Symmetry                      = T
redata: Spin-spiral                                 = F
redata: Long output                                 =   F
redata: Number of Atomic Species                    =        2
redata: Charge density info will appear in .RHO file
redata: Write Mulliken Pop.                         = NO
redata: Mesh Cutoff                                 =   200.0000 Ry
redata: Net charge of the system                    =     0.0000 |e|
redata: Min. number of SCF Iter                     =        0
redata: Max. number of SCF Iter                     =      200
redata: SCF mix quantity                            = Hamiltonian
redata: Mix DM or H after convergence               =   F
redata: Recompute H after scf cycle                 =   F
redata: Mix DM in first SCF step                    =   T
redata: Write Pulay info on disk                    =   F
redata: New DM Mixing Weight                        =     0.3000
redata: New DM Occupancy tolerance                  = 0.000000000001
redata: No kicks to SCF
redata: DM Mixing Weight for Kicks                  =     0.5000
redata: Require Harris convergence for SCF          =   F
redata: Harris energy tolerance for SCF             =     0.000100 eV
redata: Require DM convergence for SCF              =   T
redata: DM tolerance for SCF                        =     0.0000
redata: Require EDM convergence for SCF             =   F
redata: EDM tolerance for SCF                       =     0.001000 eV
redata: Require H convergence for SCF               =   T
redata: Hamiltonian tolerance for SCF               =     0.001000 eV
redata: Require (free) Energy convergence for SCF   =   F
redata: (free) Energy tolerance for SCF             =     0.000100 eV
redata: Using Saved Data (generic)                  =   F
redata: Use continuation files for DM               =   T
redata: Neglect nonoverlap interactions             =   F
redata: Method of Calculation                       = Diagonalization
redata: Divide and Conquer                          =   F
redata: Electronic Temperature                      =   290.1109 K
redata: Fix the spin of the system                  =   F
redata: Dynamics option                             = CG coord. optimization
redata: Variable cell                               =   T
redata: Use continuation files for CG               =   T
redata: Max atomic displ per move                   =     0.0100 Ang
redata: Maximum number of CG moves                  =      100
redata: Force tolerance                             =     0.0080 eV/Ang
redata: Stress tolerance                            =     0.0500 GPa
mix.SCF: Pulay mixing                            = Pulay
mix.SCF:    Variant                              = stable
mix.SCF:    History steps                        = 10
mix.SCF:    Linear mixing weight                 =     0.300000
mix.SCF:    Mixing weight                        =     0.300000
mix.SCF:    SVD condition                        = 0.1000E-07
redata: ***********************************************************************

%block SCF.Mixers
  Pulay
%endblock SCF.Mixers

%block SCF.Mixer.Pulay
  # Mixing method
  method pulay
  variant stable

  # Mixing options
  weight 0.3000
  weight.linear 0.3000
  history 10
%endblock SCF.Mixer.Pulay
 
DM_history_depth set to one: no extrapolation allowed by default for geometry relaxation
Size of DM history Fstack: 1
Total number of electrons:    64.000000
Total ionic charge:    64.000000

* ProcessorY, Blocksize:    2  24


* Orbital distribution balance (max,min):    40    24

 Kpoints in:          224 . Kpoints trimmed:          224

siesta: k-grid: Number of k-points =   224
siesta: k-grid: Cutoff (effective) =    20.052 Ang
siesta: k-grid: Supercell and displacements
siesta: k-grid:    8   0   0      0.500
siesta: k-grid:    0   8   0      0.500
siesta: k-grid:    0   0   7      0.000

superc: Internal auxiliary supercell:     5 x     5 x     3  =      75
superc: Number of atoms, orbitals, and projectors:   1200  15600  19200
 

                     ====================================
                        Begin CG opt. move =      0
                     ====================================

superc: Internal auxiliary supercell:     5 x     5 x     3  =      75
superc: Number of atoms, orbitals, and projectors:   1200  15600  19200

outcell: Unit cell vectors (Ang):
        5.012955    0.000025    0.000000
       -2.506456    4.341358   -0.000000
        0.000000   -0.000000    6.336166

outcell: Cell vector modules (Ang)   :    5.012955    5.012955    6.336166
outcell: Cell angles (23,13,12) (deg):     90.0000     90.0000    119.9994
outcell: Cell volume (Ang**3)        :    137.8946
<dSpData1D:S at geom step 0
  <sparsity:sparsity for geom step 0
    nrows_g=208 nrows=40 sparsity=2.7103 nnzs=117257, refcount: 7>
  <dData1D:(new from dSpData1D) n=117257, refcount: 1>
refcount: 1>
new_DM -- step:     1
Initializing Density Matrix...
 
Attempting to read DM from file... Failed...
DM filled with atomic data:
<dSpData2D:DM initialized from atoms
  <sparsity:sparsity for geom step 0
    nrows_g=208 nrows=40 sparsity=2.7103 nnzs=117257, refcount: 8>
  <dData2D:DM n=117257 m=1, refcount: 1>
refcount: 1>
 
No. of atoms with KB's overlaping orbs in proc 0. Max # of overlaps:     112     592
New grid distribution:   1
           1       1:   20    1:   10    1:    7
           2       1:   20    1:   10    8:   14
           3       1:   20    1:   10   15:   21
           4       1:   20    1:   10   22:   27
           5       1:   20   11:   20    1:    7
           6       1:   20   11:   20    8:   14
           7       1:   20   11:   20   15:   21
           8       1:   20   11:   20   22:   27

InitMesh: MESH =    40 x    40 x    54 =       86400
InitMesh: (bp) =    20 x    20 x    27 =       10800
InitMesh: Mesh cutoff (required, used) =   200.000   200.741 Ry
ExtMesh (bp) on 0 =    96 x    86 x    75 =      619200
New grid distribution:   2
           1      11:   20   11:   20    1:   14
           2       1:   10    1:   10    1:   14
           3      11:   20   11:   20   15:   27
           4       1:   10    1:   10   15:   27
           5       1:   10   11:   20    1:   14
           6      11:   20    1:   10    1:   14
           7       1:   10   11:   20   15:   27
           8      11:   20    1:   10   15:   27
New grid distribution:   3
           1      11:   20   11:   20    1:   14
           2       1:   10    1:   10    1:   14
           3      11:   20   11:   20   15:   27
           4       1:   10    1:   10   15:   27
           5       1:   10   11:   20    1:   14
           6      11:   20    1:   10    1:   14
           7       1:   10   11:   20   15:   27
           8      11:   20    1:   10   15:   27
Setting up quadratic distribution...
ExtMesh (bp) on 0 =    86 x    86 x    82 =      606472
PhiOnMesh: Number of (b)points on node 0 =                 1400
PhiOnMesh: nlist on node 0 =               302118

stepf: Fermi-Dirac step function

siesta: Program's energy decomposition (eV):
siesta: Ebs     =      -766.200783
siesta: Eions   =      4351.079080
siesta: Ena     =       799.321563
siesta: Ekin    =      2073.890034
siesta: Enl     =      -351.142443
siesta: Eso     =         0.000000
siesta: Eldau   =         0.000000
siesta: DEna    =      -138.907944
siesta: DUscf   =        29.281969
siesta: DUext   =         0.000000
siesta: Exc     =     -1131.608488
siesta: eta*DQ  =         0.000000
siesta: Emadel  =         0.000000
siesta: Emeta   =         0.000000
siesta: Emolmec =         0.000000
siesta: Ekinion =         0.000000
siesta: Eharris =     -3017.547932
siesta: Etot    =     -3070.244388
siesta: FreeEng =     -3070.244388

        iscf     Eharris(eV)        E_KS(eV)     FreeEng(eV)     dDmax    Ef(eV) dHmax(eV)
   scf:    1    -3017.547932    -3070.244388    -3070.244388  1.713270 -6.644185  6.615526
timer: Routine,Calls,Time,% = IterSCF        1       4.718  47.22
   scf:    2    -3088.090444    -3082.014335    -3082.014335  0.073752 -7.043760  1.503857
   scf:    3    -3082.702327    -3082.468972    -3082.468972  0.048542 -6.645846  0.440117
   scf:    4    -3082.596511    -3082.546303    -3082.546303  0.050341 -6.435477  0.046213
   scf:    5    -3082.548032    -3082.547577    -3082.547577  0.001936 -6.430714  0.014241
   scf:    6    -3082.548079    -3082.547872    -3082.547872  0.001455 -6.429357  0.001893
   scf:    7    -3082.547887    -3082.547880    -3082.547880  0.000206 -6.429662  0.001247
   scf:    8    -3082.547886    -3082.547883    -3082.547883  0.000230 -6.430131  0.000650
   scf:    9    -3082.547883    -3082.547883    -3082.547883  0.000082 -6.430324  0.000213
   scf:   10    -3082.547883    -3082.547883    -3082.547883  0.000014 -6.430235  0.000032
   scf:   11    -3082.547883    -3082.547883    -3082.547883  0.000003 -6.430245  0.000028

SCF Convergence by DM+H criterion
max |DM_out - DM_in|         :     0.0000025145
max |H_out - H_in|      (eV) :     0.0000280350
SCF cycle converged after 11 iterations

Using DM_out to compute the final energy and forces
No. of atoms with KB's overlaping orbs in proc 0. Max # of overlaps:     112     592

siesta: E_KS(eV) =            -3082.5479

siesta: E_KS - E_eggbox =     -3082.5479

siesta: Atomic forces (eV/Ang):
----------------------------------------
   Tot   -0.000017    0.000006   -0.107936
----------------------------------------
   Max    5.855110
   Res    3.376359    sqrt( Sum f_i^2 / 3N )
----------------------------------------
   Max    5.855110    constrained

Stress-tensor-Voigt (kbar):      -17.55      -12.57      416.33        4.31       -0.00       -0.00
(Free)E + p*V (eV/cell)    -3093.6278
Target enthalpy (eV/cell)    -3078.2446

siesta: Stress tensor (static) (eV/Ang**3):
        -0.010952    0.002690   -0.000000
         0.002690   -0.007847   -0.000000
        -0.000000   -0.000000    0.259851

siesta: Pressure (static):       -128.73710145  kBar

siesta: Stress tensor (total) (eV/Ang**3):
        -0.010952    0.002690   -0.000000
         0.002690   -0.007847   -0.000000
        -0.000000   -0.000000    0.259851

siesta: Pressure (total):       -128.73710145  kBar

cgvc: No target stress found, assuming hydrostatic MD.TargetPressure.

cgvc: Target stress (kBar)
cgvc:       -50.000       0.000       0.000
cgvc:         0.000     -50.000       0.000
cgvc:         0.000       0.000     -50.000

cgvc: WARNING: CG file not found

                     ====================================
                        Begin CG opt. move =      1
                     ====================================
 Kpoints in:          224 . Kpoints trimmed:          224

siesta: k-grid: Number of k-points =   224
siesta: k-grid: Cutoff (effective) =    20.051 Ang
siesta: k-grid: Supercell and displacements
siesta: k-grid:    8   8   0      0.500
siesta: k-grid:    8   0   0      0.500
siesta: k-grid:    0   0   7      0.000

superc: Internal auxiliary supercell:     5 x     5 x     3  =      75
superc: Number of atoms, orbitals, and projectors:   1200  15600  19200

outcell: Unit cell vectors (Ang):
        5.012728   -0.000005    0.000000
       -2.506369    4.341147   -0.000000
        0.000000   -0.000000    6.332055

outcell: Cell vector modules (Ang)   :    5.012728    5.012728    6.332055
outcell: Cell angles (23,13,12) (deg):     90.0000     90.0000    120.0001
outcell: Cell volume (Ang**3)        :    137.7917
<dSpData1D:S at geom step 1
  <sparsity:sparsity for geom step 1
    nrows_g=208 nrows=40 sparsity=2.7103 nnzs=117257, refcount: 7>
  <dData1D:(new from dSpData1D) n=117257, refcount: 1>
refcount: 1>
new_DM -- step:     2
Re-using DM from previous geometries...
Number of DMs in history: 1
 DM extrapolation coefficients: 
1   1.00000
New DM after history re-use:
<dSpData2D:SpM extrapolated using coords
  <sparsity:sparsity for geom step 1
    nrows_g=208 nrows=40 sparsity=2.7103 nnzs=117257, refcount: 8>
  <dData2D:(temp array for extrapolation) n=117257 m=1, refcount: 1>
refcount: 1>
No. of atoms with KB's overlaping orbs in proc 0. Max # of overlaps:     112     592
New grid distribution:   1
           1       1:   20    1:   10    1:    7
           2       1:   20    1:   10    8:   14
           3       1:   20    1:   10   15:   21
           4       1:   20    1:   10   22:   27
           5       1:   20   11:   20    1:    7
           6       1:   20   11:   20    8:   14
           7       1:   20   11:   20   15:   21
           8       1:   20   11:   20   22:   27

InitMesh: MESH =    40 x    40 x    54 =       86400
InitMesh: (bp) =    20 x    20 x    27 =       10800
InitMesh: Mesh cutoff (required, used) =   200.000   201.002 Ry
ExtMesh (bp) on 0 =    96 x    86 x    75 =      619200
New grid distribution:   2
           1      11:   20   11:   20    1:   14
           2       1:   10    1:   10    1:   14
           3      11:   20   11:   20   15:   27
           4       1:   10    1:   10   15:   27
           5       1:   10   11:   20    1:   14
           6      11:   20    1:   10    1:   14
           7       1:   10   11:   20   15:   27
           8      11:   20    1:   10   15:   27
New grid distribution:   3
           1      11:   20   11:   20    1:   14
           2       1:   10    1:   10    1:   14
           3      11:   20   11:   20   15:   27
           4       1:   10    1:   10   15:   27
           5       1:   10   11:   20    1:   14
           6      11:   20    1:   10    1:   14
           7       1:   10   11:   20   15:   27
           8      11:   20    1:   10   15:   27
Setting up quadratic distribution...
ExtMesh (bp) on 0 =    86 x    86 x    82 =      606472
PhiOnMesh: Number of (b)points on node 0 =                 1400
PhiOnMesh: nlist on node 0 =               302377

        iscf     Eharris(eV)        E_KS(eV)     FreeEng(eV)     dDmax    Ef(eV) dHmax(eV)
   scf:    1    -3082.697976    -3082.790467    -3082.790467  0.006271 -6.467355  0.016232
   scf:    2    -3082.790127    -3082.790400    -3082.790400  0.001212 -6.459954  0.019608
   scf:    3    -3082.790574    -3082.790529    -3082.790529  0.000462 -6.463987  0.001578
   scf:    4    -3082.790531    -3082.790530    -3082.790530  0.000229 -6.463480  0.000304
   scf:    5    -3082.790530    -3082.790530    -3082.790530  0.000051 -6.463383  0.000037
   scf:    6    -3082.790530    -3082.790530    -3082.790530  0.000002 -6.463377  0.000022

SCF Convergence by DM+H criterion
max |DM_out - DM_in|         :     0.0000017648
max |H_out - H_in|      (eV) :     0.0000215745
SCF cycle converged after 6 iterations

Using DM_out to compute the final energy and forces
No. of atoms with KB's overlaping orbs in proc 0. Max # of overlaps:     112     592

siesta: E_KS(eV) =            -3082.7905

siesta: Atomic forces (eV/Ang):
----------------------------------------
   Tot    0.000002    0.000017   -0.098675
----------------------------------------
   Max    5.787944
   Res    3.337952    sqrt( Sum f_i^2 / 3N )
----------------------------------------
   Max    5.787944    constrained

Stress-tensor-Voigt (kbar):      -18.06      -13.13      406.40        4.27        0.00       -0.00
(Free)E + p*V (eV/cell)    -3093.5466
Target enthalpy (eV/cell)    -3078.4904

siesta: Stress tensor (static) (eV/Ang**3):
        -0.011274    0.002665   -0.000003
         0.002665   -0.008198    0.000001
        -0.000003    0.000001    0.253653

siesta: Pressure (static):       -125.06813509  kBar

siesta: Stress tensor (total) (eV/Ang**3):
        -0.011274    0.002665   -0.000003
         0.002665   -0.008198    0.000001
        -0.000003    0.000001    0.253653

siesta: Pressure (total):       -125.06813509  kBar

                     ====================================
                        Begin CG opt. move =      2
                     ====================================
 Kpoints in:          224 . Kpoints trimmed:          224

siesta: k-grid: Number of k-points =   224
siesta: k-grid: Cutoff (effective) =    20.049 Ang
siesta: k-grid: Supercell and displacements
siesta: k-grid:    8   8   0      0.500
siesta: k-grid:    8   0   0      0.500
siesta: k-grid:    0   0   7      0.000

superc: Internal auxiliary supercell:     5 x     5 x     3  =      75
superc: Number of atoms, orbitals, and projectors:   1200  15600  19200

outcell: Unit cell vectors (Ang):
        5.012366   -0.000053    0.000000
       -2.506229    4.340810   -0.000000
        0.000000   -0.000000    6.325478

outcell: Cell vector modules (Ang)   :    5.012366    5.012366    6.325478
outcell: Cell angles (23,13,12) (deg):     90.0000     90.0000    120.0012
outcell: Cell volume (Ang**3)        :    137.6272
<dSpData1D:S at geom step 2
  <sparsity:sparsity for geom step 2
    nrows_g=208 nrows=40 sparsity=2.7103 nnzs=117257, refcount: 7>
  <dData1D:(new from dSpData1D) n=117257, refcount: 1>
refcount: 1>
new_DM -- step:     3
Re-using DM from previous geometries...
Number of DMs in history: 1
 DM extrapolation coefficients: 
1   1.00000
New DM after history re-use:
<dSpData2D:SpM extrapolated using coords
  <sparsity:sparsity for geom step 2
    nrows_g=208 nrows=40 sparsity=2.7103 nnzs=117257, refcount: 8>
  <dData2D:(temp array for extrapolation) n=117257 m=1, refcount: 1>
refcount: 1>
No. of atoms with KB's overlaping orbs in proc 0. Max # of overlaps:     112     592
New grid distribution:   1
           1       1:   20    1:   10    1:    7
           2       1:   20    1:   10    8:   14
           3       1:   20    1:   10   15:   21
           4       1:   20    1:   10   22:   27
           5       1:   20   11:   20    1:    7
           6       1:   20   11:   20    8:   14
           7       1:   20   11:   20   15:   21
           8       1:   20   11:   20   22:   27

InitMesh: MESH =    40 x    40 x    54 =       86400
InitMesh: (bp) =    20 x    20 x    27 =       10800
InitMesh: Mesh cutoff (required, used) =   200.000   201.420 Ry
ExtMesh (bp) on 0 =    96 x    86 x    75 =      619200
New grid distribution:   2
           1      11:   20   11:   20    1:   14
           2       1:   10    1:   10    1:   14
           3      11:   20   11:   20   15:   27
           4       1:   10    1:   10   15:   27
           5       1:   10   11:   20    1:   14
           6      11:   20    1:   10    1:   14
           7       1:   10   11:   20   15:   27
           8      11:   20    1:   10   15:   27
New grid distribution:   3
           1      11:   20   11:   20    1:   14
           2       1:   10    1:   10    1:   14
           3      11:   20   11:   20   15:   27
           4       1:   10    1:   10   15:   27
           5       1:   10   11:   20    1:   14
           6      11:   20    1:   10    1:   14
           7       1:   10   11:   20   15:   27
           8      11:   20    1:   10   15:   27
Setting up quadratic distribution...
ExtMesh (bp) on 0 =    86 x    86 x    82 =      606472
PhiOnMesh: Number of (b)points on node 0 =                 1400
PhiOnMesh: nlist on node 0 =               302761

        iscf     Eharris(eV)        E_KS(eV)     FreeEng(eV)     dDmax    Ef(eV) dHmax(eV)
   scf:    1    -3083.025713    -3083.172031    -3083.172031  0.009900 -6.522876  0.025545
   scf:    2    -3083.171242    -3083.171883    -3083.171883  0.001984 -6.511149  0.030329
   scf:    3    -3083.172296    -3083.172187    -3083.172187  0.000754 -6.517464  0.002391
   scf:    4    -3083.172192    -3083.172190    -3083.172190  0.000352 -6.516690  0.000484
   scf:    5    -3083.172190    -3083.172190    -3083.172190  0.000081 -6.516532  0.000061
   scf:    6    -3083.172190    -3083.172190    -3083.172190  0.000004 -6.516521  0.000034

SCF Convergence by DM+H criterion
max |DM_out - DM_in|         :     0.0000035315
max |H_out - H_in|      (eV) :     0.0000341137
SCF cycle converged after 6 iterations

Using DM_out to compute the final energy and forces
No. of atoms with KB's overlaping orbs in proc 0. Max # of overlaps:     112     592

siesta: E_KS(eV) =            -3083.1722

siesta: Atomic forces (eV/Ang):
----------------------------------------
   Tot   -0.000204   -0.000271   -0.067921
----------------------------------------
   Max    5.681775
   Res    3.277750    sqrt( Sum f_i^2 / 3N )
----------------------------------------
   Max    5.681775    constrained

Stress-tensor-Voigt (kbar):      -18.34      -13.48      392.80        4.21       -0.00       -0.00
(Free)E + p*V (eV/cell)    -3093.5079
Target enthalpy (eV/cell)    -3078.8772

siesta: Stress tensor (static) (eV/Ang**3):
        -0.011449    0.002628   -0.000001
         0.002628   -0.008415   -0.000001
        -0.000001   -0.000001    0.245162

siesta: Pressure (static):       -120.32332589  kBar

siesta: Stress tensor (total) (eV/Ang**3):
        -0.011449    0.002628   -0.000001
         0.002628   -0.008415   -0.000001
        -0.000001   -0.000001    0.245162

siesta: Pressure (total):       -120.32332589  kBar

                     ====================================
                        Begin CG opt. move =      3
                     ====================================
 Kpoints in:          224 . Kpoints trimmed:          224

siesta: k-grid: Number of k-points =   224
siesta: k-grid: Cutoff (effective) =    20.046 Ang
siesta: k-grid: Supercell and displacements
siesta: k-grid:    8   8   0      0.500
siesta: k-grid:    8   0   0      0.500
siesta: k-grid:    0   0   7      0.000

superc: Internal auxiliary supercell:     5 x     5 x     3  =      75
superc: Number of atoms, orbitals, and projectors:   1200  15600  19200

outcell: Unit cell vectors (Ang):
        5.011787   -0.000130    0.000000
       -2.506006    4.340270   -0.000000
        0.000000   -0.000000    6.314955

outcell: Cell vector modules (Ang)   :    5.011787    5.011787    6.314955
outcell: Cell angles (23,13,12) (deg):     90.0000     90.0000    120.0030
outcell: Cell volume (Ang**3)        :    137.3640
<dSpData1D:S at geom step 3
  <sparsity:sparsity for geom step 3
    nrows_g=208 nrows=40 sparsity=2.7103 nnzs=117257, refcount: 7>
  <dData1D:(new from dSpData1D) n=117257, refcount: 1>
refcount: 1>
new_DM -- step:     4
Re-using DM from previous geometries...
Number of DMs in history: 1
 DM extrapolation coefficients: 
1   1.00000
New DM after history re-use:
<dSpData2D:SpM extrapolated using coords
  <sparsity:sparsity for geom step 3
    nrows_g=208 nrows=40 sparsity=2.7103 nnzs=117257, refcount: 8>
  <dData2D:(temp array for extrapolation) n=117257 m=1, refcount: 1>
refcount: 1>
Note: For starting DM, Qtot, Tr[D*S] =         64.00000000         64.08415486
No. of atoms with KB's overlaping orbs in proc 0. Max # of overlaps:     112     592
New grid distribution:   1
           1       1:   20    1:   10    1:    7
           2       1:   20    1:   10    8:   14
           3       1:   20    1:   10   15:   21
           4       1:   20    1:   10   22:   27
           5       1:   20   11:   20    1:    7
           6       1:   20   11:   20    8:   14
           7       1:   20   11:   20   15:   21
           8       1:   20   11:   20   22:   27

InitMesh: MESH =    40 x    40 x    54 =       86400
InitMesh: (bp) =    20 x    20 x    27 =       10800
InitMesh: Mesh cutoff (required, used) =   200.000   202.092 Ry
ExtMesh (bp) on 0 =    96 x    86 x    75 =      619200
New grid distribution:   2
           1       1:   10   11:   20   14:   27
           2      11:   20    1:   10    1:   13
           3      11:   20    1:   10   14:   27
           4      11:   20   11:   20    1:   13
           5       1:   10    1:   10   14:   27
           6       1:   10    1:   10    1:   13
           7      11:   20   11:   20   14:   27
           8       1:   10   11:   20    1:   13
New grid distribution:   3
           1      11:   20   11:   20    1:   14
           2       1:   10    1:   10    1:   14
           3      11:   20   11:   20   15:   27
           4       1:   10    1:   10   15:   27
           5       1:   10   11:   20    1:   14
           6      11:   20    1:   10    1:   14
           7       1:   10   11:   20   15:   27
           8      11:   20    1:   10   15:   27
Setting up quadratic distribution...
ExtMesh (bp) on 0 =    86 x    86 x    82 =      606472
PhiOnMesh: Number of (b)points on node 0 =                 1400
PhiOnMesh: nlist on node 0 =               303257

        iscf     Eharris(eV)        E_KS(eV)     FreeEng(eV)     dDmax    Ef(eV) dHmax(eV)
   scf:    1    -3083.535927    -3083.765938    -3083.765938  0.015738 -6.613630  0.039965
   scf:    2    -3083.764169    -3083.765631    -3083.765631  0.003259 -6.595111  0.046354
   scf:    3    -3083.766587    -3083.766331    -3083.766331  0.001233 -6.604924  0.003505
   scf:    4    -3083.766342    -3083.766337    -3083.766337  0.000531 -6.603772  0.000758
   scf:    5    -3083.766338    -3083.766338    -3083.766338  0.000131 -6.603514  0.000093
   scf:    6    -3083.766338    -3083.766338    -3083.766338  0.000005 -6.603496  0.000053

SCF Convergence by DM+H criterion
max |DM_out - DM_in|         :     0.0000051425
max |H_out - H_in|      (eV) :     0.0000528284
SCF cycle converged after 6 iterations

Using DM_out to compute the final energy and forces
No. of atoms with KB's overlaping orbs in proc 0. Max # of overlaps:     112     592

siesta: E_KS(eV) =            -3083.7663

siesta: Atomic forces (eV/Ang):
----------------------------------------
   Tot   -0.000150    0.000087    0.011646
----------------------------------------
   Max    5.508566
   Res    3.179252    sqrt( Sum f_i^2 / 3N )
----------------------------------------
   Max    5.508566    constrained

Stress-tensor-Voigt (kbar):      -18.76      -14.03      369.84        4.10        0.00       -0.00
(Free)E + p*V (eV/cell)    -3093.3987
Target enthalpy (eV/cell)    -3079.4796

siesta: Stress tensor (static) (eV/Ang**3):
        -0.011710    0.002559   -0.000001
         0.002559   -0.008756    0.000001
        -0.000001    0.000001    0.230834

siesta: Pressure (static):       -112.35000646  kBar

siesta: Stress tensor (total) (eV/Ang**3):
        -0.011710    0.002559   -0.000001
         0.002559   -0.008756    0.000001
        -0.000001    0.000001    0.230834

siesta: Pressure (total):       -112.35000646  kBar

                     ====================================
                        Begin CG opt. move =      4
                     ====================================
 Kpoints in:          224 . Kpoints trimmed:          224

siesta: k-grid: Number of k-points =   224
siesta: k-grid: Cutoff (effective) =    20.043 Ang
siesta: k-grid: Supercell and displacements
siesta: k-grid:    8   8   0      0.500
siesta: k-grid:    8   0   0      0.500
siesta: k-grid:    0   0   7      0.000

superc: Internal auxiliary supercell:     5 x     5 x     3  =      75
superc: Number of atoms, orbitals, and projectors:   1200  15600  19200

outcell: Unit cell vectors (Ang):
        5.011089   -0.000223    0.000000
       -2.505738    4.339619   -0.000000
        0.000000   -0.000000    6.302283

outcell: Cell vector modules (Ang)   :    5.011089    5.011089    6.302283
outcell: Cell angles (23,13,12) (deg):     90.0000     90.0000    120.0051
outcell: Cell volume (Ang**3)        :    137.0473
<dSpData1D:S at geom step 4
  <sparsity:sparsity for geom step 4
    nrows_g=208 nrows=40 sparsity=2.7103 nnzs=117257, refcount: 7>
  <dData1D:(new from dSpData1D) n=117257, refcount: 1>
refcount: 1>
new_DM -- step:     5
Re-using DM from previous geometries...
Number of DMs in history: 1
 DM extrapolation coefficients: 
1   1.00000
New DM after history re-use:
<dSpData2D:SpM extrapolated using coords
  <sparsity:sparsity for geom step 4
    nrows_g=208 nrows=40 sparsity=2.7103 nnzs=117257, refcount: 8>
  <dData2D:(temp array for extrapolation) n=117257 m=1, refcount: 1>
refcount: 1>
Note: For starting DM, Qtot, Tr[D*S] =         64.00000000         64.09822857
No. of atoms with KB's overlaping orbs in proc 0. Max # of overlaps:     112     592
New grid distribution:   1
           1       1:   20    1:   10    1:    7
           2       1:   20    1:   10    8:   14
           3       1:   20    1:   10   15:   21
           4       1:   20    1:   10   22:   27
           5       1:   20   11:   20    1:    7
           6       1:   20   11:   20    8:   14
           7       1:   20   11:   20   15:   21
           8       1:   20   11:   20   22:   27

InitMesh: MESH =    40 x    40 x    54 =       86400
InitMesh: (bp) =    20 x    20 x    27 =       10800
InitMesh: Mesh cutoff (required, used) =   200.000   202.905 Ry
ExtMesh (bp) on 0 =    96 x    86 x    79 =      652224
New grid distribution:   2
           1      11:   20   11:   20    1:   14
           2       1:   10    1:   10    1:   14
           3      11:   20   11:   20   15:   27
           4       1:   10    1:   10   15:   27
           5       1:   10   11:   20    1:   14
           6      11:   20    1:   10    1:   14
           7       1:   10   11:   20   15:   27
           8      11:   20    1:   10   15:   27
New grid distribution:   3
           1      11:   20   11:   20    1:   14
           2       1:   10    1:   10    1:   14
           3      11:   20   11:   20   15:   27
           4       1:   10    1:   10   15:   27
           5       1:   10   11:   20    1:   14
           6      11:   20    1:   10    1:   14
           7       1:   10   11:   20   15:   27
           8      11:   20    1:   10   15:   27
Setting up quadratic distribution...
ExtMesh (bp) on 0 =    86 x    86 x    86 =      636056
PhiOnMesh: Number of (b)points on node 0 =                 1400
PhiOnMesh: nlist on node 0 =               303882

        iscf     Eharris(eV)        E_KS(eV)     FreeEng(eV)     dDmax    Ef(eV) dHmax(eV)
   scf:    1    -3084.181191    -3084.453833    -3084.453833  0.018668 -6.724654  0.046728
   scf:    2    -3084.451682    -3084.453506    -3084.453506  0.004053 -6.702724  0.052613
   scf:    3    -3084.454731    -3084.454394    -3084.454394  0.001522 -6.714096  0.003732
   scf:    4    -3084.454407    -3084.454402    -3084.454402  0.000588 -6.712843  0.000890
   scf:    5    -3084.454403    -3084.454402    -3084.454402  0.000159 -6.712523  0.000107
   scf:    6    -3084.454402    -3084.454402    -3084.454402  0.000006 -6.712502  0.000061

SCF Convergence by DM+H criterion
max |DM_out - DM_in|         :     0.0000060784
max |H_out - H_in|      (eV) :     0.0000610932
SCF cycle converged after 6 iterations

Using DM_out to compute the final energy and forces
No. of atoms with KB's overlaping orbs in proc 0. Max # of overlaps:     112     592

siesta: E_KS(eV) =            -3084.4544

siesta: Atomic forces (eV/Ang):
----------------------------------------
   Tot    0.000409   -0.000236    0.067082
----------------------------------------
   Max    5.308215
   Res    3.061369    sqrt( Sum f_i^2 / 3N )
----------------------------------------
   Max    5.308215    constrained

Stress-tensor-Voigt (kbar):      -19.24      -14.55      342.69        4.06        0.00       -0.01
(Free)E + p*V (eV/cell)    -3093.2617
Target enthalpy (eV/cell)    -3080.1775

siesta: Stress tensor (static) (eV/Ang**3):
        -0.012009    0.002535   -0.000004
         0.002535   -0.009083    0.000002
        -0.000004    0.000002    0.213886

siesta: Pressure (static):       -102.96459824  kBar

siesta: Stress tensor (total) (eV/Ang**3):
        -0.012009    0.002535   -0.000004
         0.002535   -0.009083    0.000002
        -0.000004    0.000002    0.213886

siesta: Pressure (total):       -102.96459824  kBar

                     ====================================
                        Begin CG opt. move =      5
                     ====================================
 Kpoints in:          224 . Kpoints trimmed:          224

siesta: k-grid: Number of k-points =   224
siesta: k-grid: Cutoff (effective) =    20.039 Ang
siesta: k-grid: Supercell and displacements
siesta: k-grid:    8   8   0      0.500
siesta: k-grid:    8   0   0      0.500
siesta: k-grid:    0   0   7      0.000

superc: Internal auxiliary supercell:     5 x     5 x     3  =      75
superc: Number of atoms, orbitals, and projectors:   1200  15600  19200

outcell: Unit cell vectors (Ang):
        5.010391   -0.000316    0.000000
       -2.505469    4.338969   -0.000000
        0.000000   -0.000000    6.289610

outcell: Cell vector modules (Ang)   :    5.010391    5.010391    6.289610
outcell: Cell angles (23,13,12) (deg):     90.0000     90.0000    120.0072
outcell: Cell volume (Ang**3)        :    136.7307
<dSpData1D:S at geom step 5
  <sparsity:sparsity for geom step 5
    nrows_g=208 nrows=40 sparsity=2.6994 nnzs=116785, refcount: 7>
  <dData1D:(new from dSpData1D) n=116785, refcount: 1>
refcount: 1>
new_DM -- step:     6
Re-using DM from previous geometries...
Number of DMs in history: 1
 DM extrapolation coefficients: 
1   1.00000
New DM after history re-use:
<dSpData2D:SpM extrapolated using coords
  <sparsity:sparsity for geom step 5
    nrows_g=208 nrows=40 sparsity=2.6994 nnzs=116785, refcount: 8>
  <dData2D:(temp array for extrapolation) n=116785 m=1, refcount: 1>
refcount: 1>
Note: For starting DM, Qtot, Tr[D*S] =         64.00000000         64.09532341
No. of atoms with KB's overlaping orbs in proc 0. Max # of overlaps:     112     591
New grid distribution:   1
           1       1:   20    1:   10    1:    7
           2       1:   20    1:   10    8:   14
           3       1:   20    1:   10   15:   21
           4       1:   20    1:   10   22:   27
           5       1:   20   11:   20    1:    7
           6       1:   20   11:   20    8:   14
           7       1:   20   11:   20   15:   21
           8       1:   20   11:   20   22:   27

InitMesh: MESH =    40 x    40 x    54 =       86400
InitMesh: (bp) =    20 x    20 x    27 =       10800
InitMesh: Mesh cutoff (required, used) =   200.000   203.724 Ry
ExtMesh (bp) on 0 =    96 x    86 x    79 =      652224
New grid distribution:   2
           1       1:   10   11:   20   14:   27
           2      11:   20    1:   10    1:   13
           3      11:   20    1:   10   14:   27
           4      11:   20   11:   20    1:   13
           5       1:   10    1:   10   14:   27
           6       1:   10    1:   10    1:   13
           7      11:   20   11:   20   14:   27
           8       1:   10   11:   20    1:   13
New grid distribution:   3
           1      11:   20   11:   20    1:   14
           2       1:   10    1:   10    1:   14
           3      11:   20   11:   20   15:   27
           4       1:   10    1:   10   15:   27
           5       1:   10   11:   20    1:   14
           6      11:   20    1:   10    1:   14
           7       1:   10   11:   20   15:   27
           8      11:   20    1:   10   15:   27
Setting up quadratic distribution...
ExtMesh (bp) on 0 =    86 x    86 x    86 =      636056
PhiOnMesh: Number of (b)points on node 0 =                 1400
PhiOnMesh: nlist on node 0 =               304558

        iscf     Eharris(eV)        E_KS(eV)     FreeEng(eV)     dDmax    Ef(eV) dHmax(eV)
   scf:    1    -3084.843326    -3085.112550    -3085.112550  0.018386 -6.839933  0.045271
   scf:    2    -3085.110769    -3085.112330    -3085.112330  0.004180 -6.818382  0.049449
   scf:    3    -3085.113411    -3085.113105    -3085.113105  0.001558 -6.829301  0.003236
   scf:    4    -3085.113116    -3085.113112    -3085.113112  0.000534 -6.828188  0.000863
   scf:    5    -3085.113113    -3085.113112    -3085.113112  0.000159 -6.827859  0.000103
   scf:    6    -3085.113112    -3085.113112    -3085.113112  0.000006 -6.827837  0.000058

SCF Convergence by DM+H criterion
max |DM_out - DM_in|         :     0.0000064305
max |H_out - H_in|      (eV) :     0.0000583785
SCF cycle converged after 6 iterations

Using DM_out to compute the final energy and forces
No. of atoms with KB's overlaping orbs in proc 0. Max # of overlaps:     112     591

siesta: E_KS(eV) =            -3085.1131

siesta: Atomic forces (eV/Ang):
----------------------------------------
   Tot   -0.000287    0.000168    0.155996
----------------------------------------
   Max    5.111438
   Res    2.944806    sqrt( Sum f_i^2 / 3N )
----------------------------------------
   Max    5.111438    constrained

Stress-tensor-Voigt (kbar):      -20.07      -15.65      316.19        3.83        0.00       -0.00
(Free)E + p*V (eV/cell)    -3093.0915
Target enthalpy (eV/cell)    -3080.8461

siesta: Stress tensor (static) (eV/Ang**3):
        -0.012529    0.002393   -0.000003
         0.002393   -0.009767    0.000002
        -0.000003    0.000002    0.197349

siesta: Pressure (static):        -93.48931416  kBar

siesta: Stress tensor (total) (eV/Ang**3):
        -0.012529    0.002393   -0.000003
         0.002393   -0.009767    0.000002
        -0.000003    0.000002    0.197349

siesta: Pressure (total):        -93.48931416  kBar

                     ====================================
                        Begin CG opt. move =      6
                     ====================================
 Kpoints in:          224 . Kpoints trimmed:          224

siesta: k-grid: Number of k-points =   224
siesta: k-grid: Cutoff (effective) =    20.036 Ang
siesta: k-grid: Supercell and displacements
siesta: k-grid:    8   8   0      0.500
siesta: k-grid:    8   0   0      0.500
siesta: k-grid:    0   0   7      0.000

superc: Internal auxiliary supercell:     5 x     5 x     3  =      75
superc: Number of atoms, orbitals, and projectors:   1200  15600  19200

outcell: Unit cell vectors (Ang):
        5.009694   -0.000408    0.000000
       -2.505200    4.338318   -0.000000
        0.000000   -0.000000    6.276938

outcell: Cell vector modules (Ang)   :    5.009694    5.009694    6.276938
outcell: Cell angles (23,13,12) (deg):     90.0000     90.0000    120.0093
outcell: Cell volume (Ang**3)        :    136.4143
<dSpData1D:S at geom step 6
  <sparsity:sparsity for geom step 6
    nrows_g=208 nrows=40 sparsity=2.6994 nnzs=116785, refcount: 7>
  <dData1D:(new from dSpData1D) n=116785, refcount: 1>
refcount: 1>
new_DM -- step:     7
Re-using DM from previous geometries...
Number of DMs in history: 1
 DM extrapolation coefficients: 
1   1.00000
New DM after history re-use:
<dSpData2D:SpM extrapolated using coords
  <sparsity:sparsity for geom step 6
    nrows_g=208 nrows=40 sparsity=2.6994 nnzs=116785, refcount: 8>
  <dData2D:(temp array for extrapolation) n=116785 m=1, refcount: 1>
refcount: 1>
Note: For starting DM, Qtot, Tr[D*S] =         64.00000000         64.09252131
No. of atoms with KB's overlaping orbs in proc 0. Max # of overlaps:     112     591
New grid distribution:   1
           1       1:   20    1:   10    1:    7
           2       1:   20    1:   10    8:   14
           3       1:   20    1:   10   15:   21
           4       1:   20    1:   10   22:   27
           5       1:   20   11:   20    1:    7
           6       1:   20   11:   20    8:   14
           7       1:   20   11:   20   15:   21
           8       1:   20   11:   20   22:   27

InitMesh: MESH =    40 x    40 x    54 =       86400
InitMesh: (bp) =    20 x    20 x    27 =       10800
InitMesh: Mesh cutoff (required, used) =   200.000   204.547 Ry
ExtMesh (bp) on 0 =    96 x    86 x    79 =      652224
New grid distribution:   2
           1       1:   10   11:   20   14:   27
           2      11:   20    1:   10    1:   13
           3      11:   20    1:   10   14:   27
           4      11:   20   11:   20    1:   13
           5       1:   10    1:   10   14:   27
           6       1:   10    1:   10    1:   13
           7      11:   20   11:   20   14:   27
           8       1:   10   11:   20    1:   13
New grid distribution:   3
           1      11:   20   11:   20    1:   14
           2       1:   10    1:   10    1:   14
           3      11:   20   11:   20   15:   27
           4       1:   10    1:   10   15:   27
           5       1:   10   11:   20    1:   14
           6      11:   20    1:   10    1:   14
           7       1:   10   11:   20   15:   27
           8      11:   20    1:   10   15:   27
Setting up quadratic distribution...
ExtMesh (bp) on 0 =    86 x    86 x    86 =      636056
PhiOnMesh: Number of (b)points on node 0 =                 1400
PhiOnMesh: nlist on node 0 =               305220

        iscf     Eharris(eV)        E_KS(eV)     FreeEng(eV)     dDmax    Ef(eV) dHmax(eV)
   scf:    1    -3085.477736    -3085.742582    -3085.742582  0.018491 -6.960466  0.043866
   scf:    2    -3085.741115    -3085.742454    -3085.742454  0.004300 -6.939266  0.046439
   scf:    3    -3085.743416    -3085.743136    -3085.743136  0.001589 -6.949753  0.002765
   scf:    4    -3085.743145    -3085.743142    -3085.743142  0.000481 -6.948773  0.000837
   scf:    5    -3085.743142    -3085.743142    -3085.743142  0.000161 -6.948431  0.000095
   scf:    6    -3085.743142    -3085.743142    -3085.743142  0.000005 -6.948411  0.000056

SCF Convergence by DM+H criterion
max |DM_out - DM_in|         :     0.0000054322
max |H_out - H_in|      (eV) :     0.0000556076
SCF cycle converged after 6 iterations

Using DM_out to compute the final energy and forces
No. of atoms with KB's overlaping orbs in proc 0. Max # of overlaps:     112     591

siesta: E_KS(eV) =            -3085.7431

siesta: Atomic forces (eV/Ang):
----------------------------------------
   Tot   -0.000159    0.000094    0.231043
----------------------------------------
   Max    4.920678
   Res    2.832083    sqrt( Sum f_i^2 / 3N )
----------------------------------------
   Max    4.920678    constrained

Stress-tensor-Voigt (kbar):      -21.35      -17.08      291.93        3.70        0.00       -0.00
(Free)E + p*V (eV/cell)    -3092.9378
Target enthalpy (eV/cell)    -3081.4860

siesta: Stress tensor (static) (eV/Ang**3):
        -0.013324    0.002311   -0.000001
         0.002311   -0.010657    0.000001
        -0.000001    0.000001    0.182206

siesta: Pressure (static):        -84.50210050  kBar

siesta: Stress tensor (total) (eV/Ang**3):
        -0.013324    0.002311   -0.000001
         0.002311   -0.010657    0.000001
        -0.000001    0.000001    0.182206

siesta: Pressure (total):        -84.50210050  kBar

                     ====================================
                        Begin CG opt. move =      7
                     ====================================
 Kpoints in:          224 . Kpoints trimmed:          224

siesta: k-grid: Number of k-points =   224
siesta: k-grid: Cutoff (effective) =    20.033 Ang
siesta: k-grid: Supercell and displacements
siesta: k-grid:    8   8   0      0.500
siesta: k-grid:    8   0   0      0.500
siesta: k-grid:    0   0   7      0.000

superc: Internal auxiliary supercell:     5 x     5 x     3  =      75
superc: Number of atoms, orbitals, and projectors:   1200  15600  19200

outcell: Unit cell vectors (Ang):
        5.008996   -0.000501    0.000000
       -2.504932    4.337667   -0.000000
        0.000000   -0.000000    6.264266

outcell: Cell vector modules (Ang)   :    5.008996    5.008996    6.264266
outcell: Cell angles (23,13,12) (deg):     90.0000     90.0000    120.0115
outcell: Cell volume (Ang**3)        :    136.0981
<dSpData1D:S at geom step 7
  <sparsity:sparsity for geom step 7
    nrows_g=208 nrows=40 sparsity=2.6994 nnzs=116785, refcount: 7>
  <dData1D:(new from dSpData1D) n=116785, refcount: 1>
refcount: 1>
new_DM -- step:     8
Re-using DM from previous geometries...
Number of DMs in history: 1
 DM extrapolation coefficients: 
1   1.00000
New DM after history re-use:
<dSpData2D:SpM extrapolated using coords
  <sparsity:sparsity for geom step 7
    nrows_g=208 nrows=40 sparsity=2.6994 nnzs=116785, refcount: 8>
  <dData2D:(temp array for extrapolation) n=116785 m=1, refcount: 1>
refcount: 1>
Note: For starting DM, Qtot, Tr[D*S] =         64.00000000         64.08981785
No. of atoms with KB's overlaping orbs in proc 0. Max # of overlaps:     112     591
New grid distribution:   1
           1       1:   20    1:   10    1:    7
           2       1:   20    1:   10    8:   14
           3       1:   20    1:   10   15:   21
           4       1:   20    1:   10   22:   27
           5       1:   20   11:   20    1:    7
           6       1:   20   11:   20    8:   14
           7       1:   20   11:   20   15:   21
           8       1:   20   11:   20   22:   27

InitMesh: MESH =    40 x    40 x    54 =       86400
InitMesh: (bp) =    20 x    20 x    27 =       10800
InitMesh: Mesh cutoff (required, used) =   200.000   205.376 Ry
ExtMesh (bp) on 0 =    96 x    86 x    79 =      652224
New grid distribution:   2
           1       1:   10   11:   20   14:   27
           2      11:   20    1:   10    1:   13
           3      11:   20    1:   10   14:   27
           4      11:   20   11:   20    1:   13
           5       1:   10    1:   10   14:   27
           6       1:   10    1:   10    1:   13
           7      11:   20   11:   20   14:   27
           8       1:   10   11:   20    1:   13
New grid distribution:   3
           1      11:   20   11:   20    1:   14
           2       1:   10    1:   10    1:   14
           3      11:   20   11:   20   15:   27
           4       1:   10    1:   10   15:   27
           5       1:   10   11:   20    1:   14
           6      11:   20    1:   10    1:   14
           7       1:   10   11:   20   15:   27
           8      11:   20    1:   10   15:   27
Setting up quadratic distribution...
ExtMesh (bp) on 0 =    86 x    86 x    86 =      636056
PhiOnMesh: Number of (b)points on node 0 =                 1400
PhiOnMesh: nlist on node 0 =               305928

        iscf     Eharris(eV)        E_KS(eV)     FreeEng(eV)     dDmax    Ef(eV) dHmax(eV)
   scf:    1    -3086.085795    -3086.344907    -3086.344907  0.018713 -5.656729  0.042549
   scf:    2    -3086.343692    -3086.344856    -3086.344856  0.004405 -5.635997  0.043766
   scf:    3    -3086.345725    -3086.345465    -3086.345465  0.001616 -5.646016  0.002340
   scf:    4    -3086.345472    -3086.345469    -3086.345469  0.000432 -5.645160  0.000815
   scf:    5    -3086.345470    -3086.345470    -3086.345470  0.000161 -5.644804  0.000089
   scf:    6    -3086.345470    -3086.345470    -3086.345470  0.000005 -5.644785  0.000053

SCF Convergence by DM+H criterion
max |DM_out - DM_in|         :     0.0000048721
max |H_out - H_in|      (eV) :     0.0000525186
SCF cycle converged after 6 iterations

Using DM_out to compute the final energy and forces
No. of atoms with KB's overlaping orbs in proc 0. Max # of overlaps:     112     591

siesta: E_KS(eV) =            -3086.3455

siesta: Atomic forces (eV/Ang):
----------------------------------------
   Tot   -0.000280    0.000149    0.191505
----------------------------------------
   Max    4.723959
   Res    2.719938    sqrt( Sum f_i^2 / 3N )
----------------------------------------
   Max    4.723959    constrained

Stress-tensor-Voigt (kbar):      -23.04      -18.82      264.87        3.66       -0.01        0.01
(Free)E + p*V (eV/cell)    -3092.6597
Target enthalpy (eV/cell)    -3082.0982

siesta: Stress tensor (static) (eV/Ang**3):
        -0.014383    0.002285    0.000008
         0.002285   -0.011747   -0.000004
         0.000008   -0.000004    0.165314

siesta: Pressure (static):        -74.33346746  kBar

siesta: Stress tensor (total) (eV/Ang**3):
        -0.014383    0.002285    0.000008
         0.002285   -0.011747   -0.000004
         0.000008   -0.000004    0.165314

siesta: Pressure (total):        -74.33346746  kBar

                     ====================================
                        Begin CG opt. move =      8
                     ====================================
 Kpoints in:          224 . Kpoints trimmed:          224

siesta: k-grid: Number of k-points =   224
siesta: k-grid: Cutoff (effective) =    20.029 Ang
siesta: k-grid: Supercell and displacements
siesta: k-grid:    8   8   0      0.500
siesta: k-grid:    8   0   0      0.500
siesta: k-grid:    0   0   7      0.000

superc: Internal auxiliary supercell:     5 x     5 x     3  =      75
superc: Number of atoms, orbitals, and projectors:   1200  15600  19200

outcell: Unit cell vectors (Ang):
        5.008298   -0.000594    0.000000
       -2.504663    4.337017   -0.000000
        0.000000   -0.000000    6.251593

outcell: Cell vector modules (Ang)   :    5.008298    5.008298    6.251593
outcell: Cell angles (23,13,12) (deg):     90.0000     90.0000    120.0136
outcell: Cell volume (Ang**3)        :    135.7820
<dSpData1D:S at geom step 8
  <sparsity:sparsity for geom step 8
    nrows_g=208 nrows=40 sparsity=2.6994 nnzs=116785, refcount: 7>
  <dData1D:(new from dSpData1D) n=116785, refcount: 1>
refcount: 1>
new_DM -- step:     9
Re-using DM from previous geometries...
Number of DMs in history: 1
 DM extrapolation coefficients: 
1   1.00000
New DM after history re-use:
<dSpData2D:SpM extrapolated using coords
  <sparsity:sparsity for geom step 8
    nrows_g=208 nrows=40 sparsity=2.6994 nnzs=116785, refcount: 8>
  <dData2D:(temp array for extrapolation) n=116785 m=1, refcount: 1>
refcount: 1>
Note: For starting DM, Qtot, Tr[D*S] =         64.00000000         64.08716398
No. of atoms with KB's overlaping orbs in proc 0. Max # of overlaps:     112     591
New grid distribution:   1
           1       1:   20    1:   10    1:    7
           2       1:   20    1:   10    8:   14
           3       1:   20    1:   10   15:   21
           4       1:   20    1:   10   22:   27
           5       1:   20   11:   20    1:    7
           6       1:   20   11:   20    8:   14
           7       1:   20   11:   20   15:   21
           8       1:   20   11:   20   22:   27

InitMesh: MESH =    40 x    40 x    54 =       86400
InitMesh: (bp) =    20 x    20 x    27 =       10800
InitMesh: Mesh cutoff (required, used) =   200.000   206.209 Ry
ExtMesh (bp) on 0 =    96 x    86 x    79 =      652224
New grid distribution:   2
           1      11:   20   11:   20    1:   14
           2       1:   10    1:   10    1:   14
           3      11:   20   11:   20   15:   27
           4       1:   10    1:   10   15:   27
           5       1:   10   11:   20    1:   14
           6      11:   20    1:   10    1:   14
           7       1:   10   11:   20   15:   27
           8      11:   20    1:   10   15:   27
New grid distribution:   3
           1      11:   20   11:   20    1:   14
           2       1:   10    1:   10    1:   14
           3      11:   20   11:   20   15:   27
           4       1:   10    1:   10   15:   27
           5       1:   10   11:   20    1:   14
           6      11:   20    1:   10    1:   14
           7       1:   10   11:   20   15:   27
           8      11:   20    1:   10   15:   27
Setting up quadratic distribution...
ExtMesh (bp) on 0 =    86 x    86 x    86 =      636056
PhiOnMesh: Number of (b)points on node 0 =                 1400
PhiOnMesh: nlist on node 0 =               306470

        iscf     Eharris(eV)        E_KS(eV)     FreeEng(eV)     dDmax    Ef(eV) dHmax(eV)
   scf:    1    -3086.667531    -3086.919788    -3086.919788  0.017273 -5.789215  0.041170
   scf:    2    -3086.918781    -3086.919801    -3086.919801  0.004494 -5.768844  0.041239
   scf:    3    -3086.920594    -3086.920349    -3086.920349  0.001639 -5.778485  0.002097
   scf:    4    -3086.920356    -3086.920353    -3086.920353  0.000389 -5.777742  0.000798
   scf:    5    -3086.920354    -3086.920354    -3086.920354  0.000163 -5.777379  0.000082
   scf:    6    -3086.920354    -3086.920354    -3086.920354  0.000004 -5.777362  0.000049

SCF Convergence by DM+H criterion
max |DM_out - DM_in|         :     0.0000043585
max |H_out - H_in|      (eV) :     0.0000486432
SCF cycle converged after 6 iterations

Using DM_out to compute the final energy and forces
No. of atoms with KB's overlaping orbs in proc 0. Max # of overlaps:     112     591

siesta: E_KS(eV) =            -3086.9204

siesta: Atomic forces (eV/Ang):
----------------------------------------
   Tot    0.000946   -0.000545    0.233045
----------------------------------------
   Max    4.544932
   Res    2.615468    sqrt( Sum f_i^2 / 3N )
----------------------------------------
   Max    4.544932    constrained

Stress-tensor-Voigt (kbar):      -25.95      -21.72      245.62        3.67        0.01       -0.02
(Free)E + p*V (eV/cell)    -3092.5120
Target enthalpy (eV/cell)    -3082.6830

siesta: Stress tensor (static) (eV/Ang**3):
        -0.016199    0.002290   -0.000012
         0.002290   -0.013557    0.000007
        -0.000012    0.000007    0.153300

siesta: Pressure (static):        -65.98060512  kBar

siesta: Stress tensor (total) (eV/Ang**3):
        -0.016199    0.002290   -0.000012
         0.002290   -0.013557    0.000007
        -0.000012    0.000007    0.153300

siesta: Pressure (total):        -65.98060512  kBar

                     ====================================
                        Begin CG opt. move =      9
                     ====================================
 Kpoints in:          224 . Kpoints trimmed:          224

siesta: k-grid: Number of k-points =   224
siesta: k-grid: Cutoff (effective) =    20.026 Ang
siesta: k-grid: Supercell and displacements
siesta: k-grid:    8   8   0      0.500
siesta: k-grid:    8   0   0      0.500
siesta: k-grid:    0   0   7      0.000

superc: Internal auxiliary supercell:     5 x     5 x     3  =      75
superc: Number of atoms, orbitals, and projectors:   1200  15600  19200

outcell: Unit cell vectors (Ang):
        5.007600   -0.000686    0.000000
       -2.504395    4.336366   -0.000000
        0.000000   -0.000000    6.238921

outcell: Cell vector modules (Ang)   :    5.007601    5.007601    6.238921
outcell: Cell angles (23,13,12) (deg):     90.0000     90.0000    120.0157
outcell: Cell volume (Ang**3)        :    135.4661
<dSpData1D:S at geom step 9
  <sparsity:sparsity for geom step 9
    nrows_g=208 nrows=40 sparsity=2.6994 nnzs=116785, refcount: 7>
  <dData1D:(new from dSpData1D) n=116785, refcount: 1>
refcount: 1>
new_DM -- step:    10
Re-using DM from previous geometries...
Number of DMs in history: 1
 DM extrapolation coefficients: 
1   1.00000
New DM after history re-use:
<dSpData2D:SpM extrapolated using coords
  <sparsity:sparsity for geom step 9
    nrows_g=208 nrows=40 sparsity=2.6994 nnzs=116785, refcount: 8>
  <dData2D:(temp array for extrapolation) n=116785 m=1, refcount: 1>
refcount: 1>
Note: For starting DM, Qtot, Tr[D*S] =         64.00000000         64.08448257
No. of atoms with KB's overlaping orbs in proc 0. Max # of overlaps:     112     591
New grid distribution:   1
           1       1:   20    1:   10    1:    7
           2       1:   20    1:   10    8:   14
           3       1:   20    1:   10   15:   21
           4       1:   20    1:   10   22:   27
           5       1:   20   11:   20    1:    7
           6       1:   20   11:   20    8:   14
           7       1:   20   11:   20   15:   21
           8       1:   20   11:   20   22:   27

InitMesh: MESH =    40 x    40 x    54 =       86400
InitMesh: (bp) =    20 x    20 x    27 =       10800
InitMesh: Mesh cutoff (required, used) =   200.000   207.048 Ry
ExtMesh (bp) on 0 =    96 x    86 x    79 =      652224
New grid distribution:   2
           1      11:   20   11:   20    1:   14
           2       1:   10    1:   10    1:   14
           3      11:   20   11:   20   15:   27
           4       1:   10    1:   10   15:   27
           5       1:   10   11:   20    1:   14
           6      11:   20    1:   10    1:   14
           7       1:   10   11:   20   15:   27
           8      11:   20    1:   10   15:   27
New grid distribution:   3
           1      11:   20   11:   20    1:   14
           2       1:   10    1:   10    1:   14
           3      11:   20   11:   20   15:   27
           4       1:   10    1:   10   15:   27
           5       1:   10   11:   20    1:   14
           6      11:   20    1:   10    1:   14
           7       1:   10   11:   20   15:   27
           8      11:   20    1:   10   15:   27
Setting up quadratic distribution...
ExtMesh (bp) on 0 =    86 x    86 x    86 =      636056
PhiOnMesh: Number of (b)points on node 0 =                 1400
PhiOnMesh: nlist on node 0 =               307196

        iscf     Eharris(eV)        E_KS(eV)     FreeEng(eV)     dDmax    Ef(eV) dHmax(eV)
   scf:    1    -3087.224940    -3087.470070    -3087.470070  0.015358 -5.921443  0.039854
   scf:    2    -3087.469258    -3087.470146    -3087.470146  0.004612 -5.901364  0.038698
   scf:    3    -3087.470873    -3087.470642    -3087.470642  0.001669 -5.910642  0.001910
   scf:    4    -3087.470647    -3087.470645    -3087.470645  0.000345 -5.910003  0.000783
   scf:    5    -3087.470646    -3087.470646    -3087.470646  0.000164 -5.909631  0.000076
   scf:    6    -3087.470646    -3087.470646    -3087.470646  0.000004 -5.909614  0.000045

SCF Convergence by DM+H criterion
max |DM_out - DM_in|         :     0.0000038032
max |H_out - H_in|      (eV) :     0.0000452547
SCF cycle converged after 6 iterations

Using DM_out to compute the final energy and forces
No. of atoms with KB's overlaping orbs in proc 0. Max # of overlaps:     112     591

siesta: E_KS(eV) =            -3087.4706

siesta: Atomic forces (eV/Ang):
----------------------------------------
   Tot    0.001297   -0.000724    0.235255
----------------------------------------
   Max    4.367877
   Res    2.512881    sqrt( Sum f_i^2 / 3N )
----------------------------------------
   Max    4.367877    constrained

Stress-tensor-Voigt (kbar):      -27.95      -23.71      226.42        3.67        0.00       -0.00
(Free)E + p*V (eV/cell)    -3092.3958
Target enthalpy (eV/cell)    -3083.2431

siesta: Stress tensor (static) (eV/Ang**3):
        -0.017446    0.002294   -0.000001
         0.002294   -0.014799    0.000000
        -0.000001    0.000000    0.141317

siesta: Pressure (static):        -58.25156173  kBar

siesta: Stress tensor (total) (eV/Ang**3):
        -0.017446    0.002294   -0.000001
         0.002294   -0.014799    0.000000
        -0.000001    0.000000    0.141317

siesta: Pressure (total):        -58.25156173  kBar

                     ====================================
                        Begin CG opt. move =     10
                     ====================================
 Kpoints in:          224 . Kpoints trimmed:          224

siesta: k-grid: Number of k-points =   224
siesta: k-grid: Cutoff (effective) =    20.022 Ang
siesta: k-grid: Supercell and displacements
siesta: k-grid:    8   8   0      0.500
siesta: k-grid:    8   0   0      0.500
siesta: k-grid:    0   0   7      0.000

superc: Internal auxiliary supercell:     5 x     5 x     3  =      75
superc: Number of atoms, orbitals, and projectors:   1200  15600  19200

outcell: Unit cell vectors (Ang):
        5.006903   -0.000779    0.000000
       -2.504126    4.335716   -0.000000
        0.000000   -0.000000    6.226249

outcell: Cell vector modules (Ang)   :    5.006903    5.006903    6.226249
outcell: Cell angles (23,13,12) (deg):     90.0000     90.0000    120.0178
outcell: Cell volume (Ang**3)        :    135.1504
<dSpData1D:S at geom step 10
  <sparsity:sparsity for geom step 10
    nrows_g=208 nrows=40 sparsity=2.7001 nnzs=116815, refcount: 7>
  <dData1D:(new from dSpData1D) n=116815, refcount: 1>
refcount: 1>
new_DM -- step:    11
Re-using DM from previous geometries...
Number of DMs in history: 1
 DM extrapolation coefficients: 
1   1.00000
New DM after history re-use:
<dSpData2D:SpM extrapolated using coords
  <sparsity:sparsity for geom step 10
    nrows_g=208 nrows=40 sparsity=2.7001 nnzs=116815, refcount: 8>
  <dData2D:(temp array for extrapolation) n=116815 m=1, refcount: 1>
refcount: 1>
Note: For starting DM, Qtot, Tr[D*S] =         64.00000000         64.08141739
No. of atoms with KB's overlaping orbs in proc 0. Max # of overlaps:     112     591
New grid distribution:   1
           1       1:   20    1:   10    1:    7
           2       1:   20    1:   10    8:   14
           3       1:   20    1:   10   15:   21
           4       1:   20    1:   10   22:   27
           5       1:   20   11:   20    1:    7
           6       1:   20   11:   20    8:   14
           7       1:   20   11:   20   15:   21
           8       1:   20   11:   20   22:   27

InitMesh: MESH =    40 x    40 x    54 =       86400
InitMesh: (bp) =    20 x    20 x    27 =       10800
InitMesh: Mesh cutoff (required, used) =   200.000   207.891 Ry
ExtMesh (bp) on 0 =    96 x    86 x    79 =      652224
New grid distribution:   2
           1      11:   20   11:   20    1:   14
           2       1:   10    1:   10    1:   14
           3      11:   20   11:   20   15:   27
           4       1:   10    1:   10   15:   27
           5       1:   10   11:   20    1:   14
           6      11:   20    1:   10    1:   14
           7       1:   10   11:   20   15:   27
           8      11:   20    1:   10   15:   27
New grid distribution:   3
           1      11:   20   11:   20    1:   14
           2       1:   10    1:   10    1:   14
           3      11:   20   11:   20   15:   27
           4       1:   10    1:   10   15:   27
           5       1:   10   11:   20    1:   14
           6      11:   20    1:   10    1:   14
           7       1:   10   11:   20   15:   27
           8      11:   20    1:   10   15:   27
Setting up quadratic distribution...
ExtMesh (bp) on 0 =    86 x    86 x    86 =      636056
PhiOnMesh: Number of (b)points on node 0 =                 1400
PhiOnMesh: nlist on node 0 =               308050

        iscf     Eharris(eV)        E_KS(eV)     FreeEng(eV)     dDmax    Ef(eV) dHmax(eV)
   scf:    1    -3087.755363    -3087.995566    -3087.995566  0.013922 -6.052304  0.038178
   scf:    2    -3087.994940    -3087.995700    -3087.995700  0.004691 -6.032757  0.035818
   scf:    3    -3087.996359    -3087.996144    -3087.996144  0.001686 -6.041572  0.001709
[...]
 214  1 -25.40 -25.30 -23.56 -23.48 -22.96 -22.90 -22.56 -22.52 -16.58 -16.55
        -16.16 -16.13 -15.51 -15.48 -13.46 -13.43 -13.13 -12.96 -12.93 -12.51
        -11.99 -11.97 -10.98 -10.96 -10.55 -10.24 -10.22 -10.05  -9.67  -9.24
         -9.03  -8.71  -3.28  -2.96  -2.63  -2.31  -1.69  -1.36   0.40   1.32
          2.04   2.20   3.10   3.24   3.31   3.40   3.76   3.84   4.22   4.60
          5.03   5.21   5.26   5.50   5.59   5.77   5.86   5.91   8.76   8.93
          9.04   9.07   9.80   9.94  10.37  10.99  11.75  11.97  12.36  12.43
         12.44  12.47  13.68  13.68  13.96  13.98  14.09  14.36  16.79  17.05
         17.18  17.51  17.95  18.71  19.85  20.20  20.62  20.73  21.17  21.31
         21.32  21.63  22.22  22.60  23.01  23.30  26.49  26.53  27.48  27.48
         27.66  28.32  28.40  28.70  29.13  29.79  30.55  31.10  31.49  31.74
         32.42  33.01  33.17  34.47  34.69  35.60  35.85  35.89  37.12  37.32
         38.21  38.42  38.85  39.24  39.69  40.72  42.67  43.39  44.51  44.76
         45.07  46.24  46.69  46.71  47.08  48.07  48.23  49.20  50.78  52.17
         52.82  52.96  53.74  53.92  54.56  55.23  55.60  55.93  56.27  57.23
         57.82  59.39  59.52  61.52  62.21  62.77  64.26  64.63  65.34  66.64
         67.24  67.44  68.95  69.17  69.41  69.98  70.34  70.58  70.72  71.51
         72.39  72.62  73.15  73.90  76.27  76.83  78.25  78.41  78.97  79.59
         80.16  82.69  83.09  84.63  90.72  92.47  93.26  97.15  97.97  99.24
        100.50 101.71 104.12 106.38 107.91 109.62 110.41 111.64 113.14 118.77
        120.58 121.22 121.93 123.96 125.28 126.05 127.87 128.46
 215  1 -25.22 -25.12 -23.87 -23.79 -23.01 -22.95 -22.55 -22.50 -16.35 -16.32
        -15.90 -15.87 -14.91 -14.88 -13.83 -13.80 -13.23 -13.20 -12.90 -12.30
        -11.80 -11.77 -11.56 -11.52 -10.99 -10.51 -10.49 -10.46  -9.74  -9.31
         -9.03  -8.69  -3.11  -2.84  -2.42  -2.11  -1.01  -0.72   0.52   1.29
          2.05   2.27   3.15   3.19   3.60   3.86   4.04   4.21   4.37   4.63
          4.71   5.32   5.42   5.57   5.64   5.69   5.91   5.92   8.51   8.52
          9.26   9.26   9.26   9.34  10.07  10.30  11.10  11.53  11.88  11.99
         12.03  12.09  13.63  13.71  14.02  14.08  14.55  14.77  16.67  17.05
         17.19  17.63  18.40  18.94  19.17  19.29  20.33  20.53  20.93  21.13
         21.53  21.70  22.05  22.19  22.96  23.28  26.84  26.91  27.86  27.97
         27.99  28.61  29.38  29.61  29.67  30.06  30.64  30.80  31.89  31.96
         31.99  32.56  33.58  33.61  34.97  35.24  35.55  36.67  36.67  37.65
         39.20  39.40  40.01  40.10  40.33  41.32  43.47  43.83  44.75  45.59
         46.43  46.68  47.44  47.73  47.87  47.96  49.35  50.14  50.46  50.71
         51.39  51.67  52.15  52.55  53.56  54.78  55.31  55.51  55.76  56.65
         58.09  59.60  59.75  59.86  60.56  62.57  62.64  63.22  63.36  63.46
         66.29  66.76  68.23  68.69  69.82  70.17  70.34  70.36  70.62  71.87
         72.18  73.04  73.39  74.87  76.02  76.72  77.41  78.57  79.10  79.78
         80.30  82.68  82.95  84.61  91.71  93.21  93.37  98.40  99.70 101.17
        102.66 103.67 104.32 106.29 106.39 107.91 109.32 109.55 111.62 117.08
        118.18 119.52 119.93 122.20 122.76 124.70 125.51 127.49
 216  1 -24.90 -24.80 -24.08 -24.00 -23.60 -23.52 -22.22 -22.19 -16.30 -16.26
        -14.92 -14.90 -14.69 -14.66 -14.29 -14.26 -12.81 -12.78 -12.62 -12.45
        -12.20 -11.97 -11.94 -11.75 -11.28 -11.10 -11.08 -10.73 -10.60 -10.10
         -8.48  -8.26  -3.42  -3.25  -1.27  -1.02  -0.45  -0.21   0.61   1.11
          2.52   2.94   2.96   3.31   3.37   3.89   3.97   4.35   4.37   4.55
          4.85   5.09   5.18   5.32   5.58   5.81   6.65   6.79   8.10   8.43
          8.55   8.65   8.84   9.28   9.89  10.08  11.44  11.52  11.76  11.88
         11.95  12.44  13.18  13.37  13.42  13.50  14.18  14.53  16.02  16.44
         16.95  17.44  18.09  18.58  18.92  19.35  20.04  20.26  20.66  20.99
         21.63  22.02  22.43  22.97  23.23  23.73  25.40  27.75  28.17  28.71
         28.79  28.84  29.03  29.77  30.48  30.54  30.85  31.14  31.37  32.34
         32.43  32.50  34.22  34.80  35.55  35.78  36.27  36.37  36.78  37.75
         39.95  40.11  40.90  41.69  43.01  43.25  43.50  44.51  44.99  46.18
         46.36  46.69  47.78  48.07  48.31  48.89  49.28  50.11  50.15  50.46
         50.46  51.03  52.03  52.85  53.32  53.93  55.07  56.00  56.36  56.43
         56.86  57.97  58.49  59.50  60.13  61.85  62.76  63.49  64.40  64.80
         64.97  65.62  67.24  67.62  68.57  69.73  69.82  69.83  70.65  71.16
         72.11  72.18  73.43  74.32  76.28  76.51  77.97  78.83  79.35  79.42
         79.81  81.24  81.62  83.06  93.73  94.87  95.03  98.29  98.48 100.53
        100.96 102.05 102.32 104.52 104.97 105.82 106.48 108.25 108.86 110.47
        112.89 113.64 116.06 116.50 117.91 117.96 129.39 130.51
 217  1 -24.65 -24.56 -24.38 -24.29 -23.62 -23.54 -22.20 -22.17 -16.16 -16.12
        -14.91 -14.89 -14.74 -14.73 -13.65 -13.63 -13.05 -13.02 -12.96 -12.94
        -12.05 -11.77 -11.70 -11.61 -11.52 -11.39 -11.35 -11.11 -10.64 -10.13
         -8.44  -8.22  -3.39  -3.25  -1.16  -0.93   0.09   0.33   0.46   0.79
          2.54   2.68   3.05   3.18   3.46   4.13   4.23   4.29   4.34   4.58
          4.80   4.90   5.08   5.23   5.86   6.09   7.27   7.36   7.74   7.99
          8.00   8.01   8.97   9.19  10.41  10.68  10.88  11.18  11.24  11.48
         11.82  12.31  13.23  13.38  13.42  13.54  14.95  15.37  15.89  15.91
         16.31  16.39  18.22  18.66  19.52  19.92  20.00  20.11  20.23  20.47
         21.52  21.94  22.77  23.07  23.33  23.64  24.98  28.23  28.45  28.47
         28.86  28.93  29.27  30.18  30.28  30.35  31.39  31.48  31.62  32.21
         32.28  32.31  34.76  35.12  35.17  36.00  36.03  36.36  36.67  37.60
         40.45  41.07  41.15  42.27  42.63  43.75  44.05  44.45  45.50  45.84
         46.50  46.99  47.03  47.88  48.48  48.56  48.75  49.33  50.73  50.90
         50.92  51.70  52.13  52.33  52.61  53.40  55.45  56.16  56.48  57.67
         57.73  58.41  59.32  60.01  60.28  60.65  61.67  61.98  62.44  62.53
         65.20  65.52  67.33  67.73  68.87  69.50  69.57  70.00  70.48  70.96
         72.80  73.57  73.71  75.23  75.94  75.95  77.39  78.93  79.06  79.23
         79.61  79.97  81.58  82.36  93.82  94.34  95.73  96.87  98.65 100.65
        101.98 103.20 103.63 104.16 104.26 104.66 106.27 106.69 109.45 109.96
        111.74 112.91 112.98 115.32 115.66 117.17 129.28 130.53
 218  1 -24.68 -24.59 -24.15 -24.06 -23.90 -23.81 -22.11 -22.10 -16.20 -16.15
        -15.03 -15.02 -14.37 -14.36 -14.01 -13.99 -12.90 -12.86 -12.54 -12.52
        -12.12 -12.09 -12.09 -11.58 -11.44 -11.40 -11.36 -11.02 -10.82 -10.48
         -8.27  -8.14  -3.50  -3.38  -0.68  -0.47  -0.27  -0.04   0.52   0.86
          2.79   2.86   3.10   3.42   3.62   3.88   4.06   4.11   4.27   4.58
          4.79   4.85   4.94   5.03   5.94   6.09   6.94   7.11   7.89   7.99
          8.03   8.03   9.32   9.56  10.44  10.71  11.20  11.28  11.47  11.89
         11.93  12.51  13.06  13.19  13.37  13.48  13.97  14.35  15.79  15.80
         16.11  16.33  18.68  19.09  19.13  19.50  20.03  20.25  20.26  20.51
         22.10  22.52  22.56  23.08  23.19  23.77  24.58  28.06  28.54  28.88
         28.95  29.42  29.51  29.87  30.03  30.46  30.85  31.52  31.69  32.11
         32.48  32.64  35.01  35.03  35.78  36.32  36.37  36.77  36.87  37.65
         40.47  40.69  41.43  41.98  42.69  44.01  44.47  44.64  45.20  45.87
         45.93  46.18  47.12  47.50  48.70  48.98  49.67  49.99  50.49  50.96
         51.23  51.80  52.25  52.41  52.81  53.44  55.69  55.95  56.99  57.78
         58.31  58.49  58.82  59.04  60.04  61.08  62.92  63.57  64.66  65.03
         65.16  65.38  65.52  66.10  67.09  67.41  68.32  68.57  70.72  71.98
         72.10  73.45  74.01  74.19  75.53  76.78  77.67  78.15  79.23  79.39
         79.90  80.75  80.85  82.38  95.20  95.90  95.95  98.00  98.29  99.11
         99.63 100.85 100.96 101.82 102.92 104.00 105.58 106.59 109.20 110.11
        111.04 111.43 112.89 115.53 115.58 116.11 130.62 130.89
 219  1 -24.58 -24.58 -24.49 -24.49 -23.34 -23.27 -22.35 -22.31 -16.08 -16.05
        -15.10 -15.10 -14.67 -14.65 -13.35 -13.32 -13.30 -13.30 -13.27 -13.27
        -11.97 -11.96 -11.42 -11.42 -11.33 -11.33 -11.29 -11.29 -10.24  -9.75
         -8.71  -8.42  -3.20  -3.00  -1.64  -1.41   0.33   0.34   0.64   0.64
          2.43   2.43   2.79   2.79   3.78   4.16   4.17   4.42   4.59   4.78
          4.85   4.86   5.30   5.50   5.77   6.00   7.61   7.83   7.85   7.86
          7.87   8.03   8.49   8.76  10.31  10.35  10.60  10.64  11.20  11.57
         11.63  11.77  13.46  13.69  13.82  13.98  16.00  16.01  16.16  16.44
         16.45  16.63  17.73  18.23  19.85  19.86  19.95  20.22  20.38  20.39
         20.96  21.31  22.82  22.84  23.30  23.30  25.74  27.87  27.87  28.54
         28.54  29.21  29.62  30.20  30.43  30.45  31.14  31.28  31.49  32.09
         32.30  32.32  34.21  34.27  35.31  35.62  35.68  35.70  36.34  37.47
         40.58  41.00  41.80  41.81  43.09  43.35  43.37  43.40  46.11  46.57
         46.62  47.17  47.86  47.96  48.04  48.18  48.62  48.66  50.14  50.24
         51.31  51.65  52.11  52.95  53.15  53.26  54.00  56.00  56.99  57.41
         57.53  57.62  58.28  58.37  60.73  60.75  61.04  61.07  62.43  62.45
         65.46  65.85  68.00  68.34  69.46  69.69  70.94  70.97  71.91  72.57
         72.63  72.86  74.75  74.79  76.00  77.07  77.10  78.77  78.86  78.87
         79.02  79.82  82.14  82.23  93.13  93.19  95.76  95.79  98.56 102.95
        103.38 103.51 105.02 106.39 107.39 107.47 108.74 108.77 109.36 109.55
        112.86 112.89 115.58 115.81 115.86 118.79 127.54 128.99
 220  1 -24.90 -24.80 -24.35 -24.26 -22.79 -22.78 -22.73 -22.73 -15.82 -15.82
        -15.81 -15.80 -13.95 -13.94 -13.94 -13.92 -13.91 -13.91 -12.71 -12.59
        -12.27 -11.76 -11.65 -11.41 -11.38 -11.08 -10.88 -10.86  -9.42  -9.41
         -9.01  -9.01  -2.59  -2.58  -2.35  -2.33  -0.08   0.18   0.53   1.04
          2.07   2.35   2.61   2.74   4.02   4.31   4.35   4.35   4.69   4.72
          4.79   5.19   5.44   5.46   5.74   5.75   7.15   7.19   7.88   7.90
          8.45   8.48   9.09   9.13   9.66   9.83  10.30  10.69  11.34  11.37
         11.59  11.61  13.86  13.87  14.31  14.31  15.80  16.05  16.87  16.88
         17.38  17.38  17.64  18.01  19.17  20.09  20.21  20.22  20.47  20.52
         20.52  21.37  22.22  22.49  22.82  23.03  27.30  27.30  28.24  28.27
         28.27  28.31  30.05  30.09  30.63  30.82  30.83  31.02  31.36  31.41
         32.51  32.52  32.87  33.83  34.28  35.24  35.25  35.63  36.99  36.99
         40.84  41.03  41.04  41.44  41.45  42.67  43.07  44.56  44.72  46.85
         47.03  47.36  47.39  47.54  47.79  47.81  49.15  49.40  50.89  50.90
         51.17  51.84  51.86  52.43  53.66  54.16  54.16  54.52  54.70  54.74
         58.53  59.24  59.24  59.42  59.65  59.66  60.18  61.78  61.90  63.89
         66.55  66.60  67.20  67.21  70.06  70.10  71.35  71.36  71.60  72.62
         73.93  74.24  74.75  75.08  75.85  76.41  77.60  77.63  78.44  79.54
         79.59  80.57  82.21  83.63  92.04  93.06  94.29  96.61 100.36 100.41
        106.22 106.30 106.52 106.53 107.85 108.36 108.47 109.24 111.80 114.53
        115.21 116.37 116.43 118.77 122.04 122.13 124.19 124.26
 221  1 -25.08 -24.98 -24.00 -23.91 -23.29 -23.22 -22.37 -22.34 -16.36 -16.33
        -15.42 -15.39 -14.59 -14.56 -14.26 -14.23 -13.06 -13.03 -12.72 -12.22
        -11.92 -11.85 -11.83 -11.79 -11.16 -10.77 -10.75 -10.62 -10.17  -9.69
         -8.74  -8.45  -3.29  -3.07  -1.85  -1.57  -0.70  -0.45   0.59   1.24
          2.25   2.55   3.10   3.20   3.44   3.83   3.93   4.46   4.61   4.62
          4.77   5.26   5.26   5.41   5.56   5.62   6.29   6.37   8.35   8.56
          8.90   9.19   9.33   9.50   9.53   9.63  11.24  11.68  11.68  11.92
         11.98  12.13  13.40  13.57  13.74  13.85  14.42  14.70  16.34  16.76
         17.58  18.04  18.08  18.49  18.68  19.19  20.10  20.33  21.08  21.22
         21.51  21.55  22.14  22.55  23.14  23.57  26.56  27.12  27.45  28.22
         28.42  28.65  29.58  29.78  30.32  30.55  30.56  30.91  31.23  32.26
         32.42  32.92  33.19  34.64  34.74  35.41  35.92  36.40  36.64  37.81
         39.58  39.68  40.53  41.40  41.45  41.78  43.65  44.65  44.73  45.74
         46.84  46.98  47.00  48.01  48.14  48.55  49.66  50.00  50.03  50.87
         51.60  51.78  51.85  52.90  52.90  53.71  54.58  55.11  55.87  57.15
         57.72  58.05  58.34  60.02  60.21  62.43  62.66  63.22  63.74  63.90
         65.39  66.02  68.48  68.65  69.61  69.65  69.72  70.62  71.11  71.19
         72.28  72.52  72.86  74.86  76.39  76.79  77.49  79.05  79.21  79.60
         79.90  81.99  82.24  83.80  92.36  93.97  94.11  98.36  98.78 101.70
        102.39 103.33 103.86 104.02 106.86 107.98 108.08 108.86 110.28 113.08
        115.29 116.54 117.68 119.43 120.10 121.25 127.77 129.26
 222  1 -25.11 -25.01 -23.78 -23.70 -23.54 -23.47 -22.27 -22.25 -16.48 -16.45
        -15.17 -15.14 -14.89 -14.86 -14.32 -14.29 -12.76 -12.62 -12.59 -12.21
        -12.21 -12.18 -11.77 -11.70 -10.86 -10.79 -10.77 -10.53 -10.34 -10.02
         -8.56  -8.33  -3.47  -3.24  -1.46  -1.19  -1.08  -0.80   0.60   1.29
          2.55   2.87   2.96   3.32   3.33   3.53   3.79   4.18   4.59   4.82
          4.85   5.03   5.22   5.48   5.54   5.55   6.05   6.22   8.74   8.75
          9.09   9.15   9.37   9.41   9.52   9.61  11.85  11.94  12.11  12.14
         12.35  12.60  13.19  13.40  13.43  13.44  13.65  13.93  16.22  16.62
         17.95  18.05  18.34  18.41  18.52  18.77  20.11  20.32  21.20  21.52
         21.74  22.03  22.09  22.49  23.28  23.70  26.20  27.29  27.65  27.90
         28.45  28.63  28.88  29.49  30.57  30.58  30.59  30.93  31.21  32.35
         32.40  32.87  33.95  34.53  35.26  35.88  36.08  36.13  36.97  37.98
         39.21  39.28  40.60  40.92  41.49  41.82  43.59  44.31  45.39  45.55
         46.20  46.41  47.37  47.94  48.04  48.72  50.05  50.36  50.68  51.04
         51.12  51.97  52.42  52.58  53.00  54.60  54.82  55.27  56.57  57.27
         57.43  57.58  58.17  58.80  59.06  61.14  64.88  65.05  65.47  65.79
         66.51  67.20  67.39  67.77  68.78  69.14  70.30  70.43  70.62  70.85
         71.47  71.87  72.83  72.91  76.90  77.60  78.21  78.91  79.50  79.77
         79.85  80.97  82.69  83.26  93.18  93.77  95.37  97.08  99.41  99.93
        100.32 101.98 102.89 105.39 105.53 106.51 108.34 108.65 110.45 110.46
        114.96 115.17 118.39 119.07 120.29 121.61 129.58 130.13
 223  1 -25.00 -24.90 -24.19 -24.10 -23.04 -22.97 -22.55 -22.51 -16.13 -16.11
        -15.64 -15.61 -14.27 -14.24 -14.13 -14.10 -13.51 -13.49 -12.67 -12.33
        -12.14 -11.84 -11.59 -11.56 -11.42 -10.87 -10.79 -10.76  -9.80  -9.34
         -9.04  -8.69  -3.00  -2.74  -2.22  -1.97  -0.37  -0.11   0.57   1.16
          2.09   2.37   2.83   2.92   3.91   3.99   4.35   4.44   4.56   4.69
          4.70   5.30   5.36   5.40   5.62   5.71   6.70   6.71   8.02   8.24
          8.64   8.83   9.40   9.47   9.56   9.68  10.61  11.05  11.47  11.63
         11.72  11.75  13.66  13.81  14.11  14.19  15.21  15.47  16.57  17.03
         17.23  17.74  17.96  18.34  18.91  19.70  20.11  20.37  20.66  20.83
         20.94  21.56  22.12  22.45  22.95  23.26  27.17  27.24  27.27  28.25
         28.27  29.47  29.54  30.12  30.23  30.57  30.70  30.90  31.22  31.96
         32.49  32.61  32.93  34.23  34.50  34.89  35.65  36.07  36.69  37.47
         40.23  40.24  40.79  41.24  41.65  42.09  43.46  44.50  44.80  46.54
         46.58  47.26  47.76  47.91  47.94  48.10  48.48  50.28  50.30  50.45
         51.21  51.78  51.84  52.95  53.00  53.75  54.36  54.86  55.13  55.97
         58.41  58.82  59.32  60.18  60.88  60.92  61.08  61.33  61.46  63.69
         65.95  66.48  67.59  68.18  69.56  70.56  70.73  70.74  71.74  71.95
         72.65  73.43  73.91  75.69  75.96  76.55  76.95  78.41  79.25  79.30
         79.80  81.60  82.41  83.95  92.02  93.41  93.92  97.30  99.66 102.26
        104.04 105.08 105.71 106.66 106.93 107.49 107.79 109.69 110.99 115.07
        115.63 116.98 118.09 119.06 120.24 121.78 125.24 127.01
 224  1 -24.76 -24.66 -24.48 -24.39 -23.05 -22.99 -22.55 -22.50 -15.97 -15.95
        -15.47 -15.46 -14.34 -14.32 -13.67 -13.65 -13.61 -13.58 -12.96 -12.92
        -12.17 -11.83 -11.60 -11.34 -11.31 -11.24 -11.07 -11.04  -9.82  -9.37
         -9.05  -8.69  -2.91  -2.70  -2.13  -1.88   0.16   0.44   0.47   0.87
          2.20   2.46   2.50   2.69   4.07   4.10   4.22   4.62   4.66   4.69
          4.84   5.04   5.48   5.63   5.67   5.87   7.58   7.60   7.64   8.08
          8.16   8.47   8.50   8.51   9.89  10.12  10.28  10.61  11.21  11.46
         11.52  11.60  13.73  13.88  14.16  14.28  16.04  16.37  16.49  16.97
         17.01  17.26  17.35  17.80  19.51  20.00  20.15  20.28  20.29  20.49
         20.83  20.89  22.52  22.81  22.82  23.10  26.90  27.48  27.53  28.37
         28.38  29.43  29.86  30.07  30.54  30.73  30.84  30.89  31.21  32.10
         32.45  32.52  33.14  33.85  34.84  35.02  35.50  35.78  36.37  37.25
         40.79  41.17  41.35  42.02  42.36  42.48  43.05  44.05  45.52  46.65
         46.67  47.49  47.62  47.69  47.92  47.93  48.83  49.69  49.83  51.11
         51.30  51.84  51.91  52.83  52.90  53.71  53.99  54.91  55.23  56.12
         57.78  58.08  58.47  58.61  60.08  60.38  60.72  61.56  62.34  63.39
         65.88  66.43  67.24  68.05  69.52  70.58  70.81  71.75  72.13  72.53
         73.87  73.96  74.57  75.19  76.45  76.73  77.15  77.82  78.28  79.23
         79.45  79.81  82.09  82.89  92.42  92.97  94.93  96.07  99.19 101.36
        105.02 105.55 106.34 106.68 108.24 108.69 109.26 109.87 111.10 112.45
        113.31 114.56 116.07 117.10 118.78 121.26 124.92 126.94
siesta: Fermi energy =      -5.704787 eV

siesta: Program's energy decomposition (eV):
siesta: Ebs     =      -975.446091
siesta: Eions   =      4351.079080
siesta: Ena     =       790.991884
siesta: Ekin    =      1986.416620
siesta: Enl     =      -329.419101
siesta: Eso     =         0.000000
siesta: Eldau   =         0.000000
siesta: DEna    =       -83.121493
siesta: DUscf   =         9.219443
siesta: DUext   =         0.000000
siesta: Exc     =     -1117.158547
siesta: eta*DQ  =         0.000000
siesta: Emadel  =         0.000000
siesta: Emeta   =         0.000000
siesta: Emolmec =         0.000000
siesta: Ekinion =         0.000000
siesta: Eharris =     -3094.150273
siesta: Etot    =     -3094.150273
siesta: FreeEng =     -3094.150273

siesta: Final energy (eV):
siesta:  Band Struct. =    -975.446091
siesta:       Kinetic =    1986.416620
siesta:       Hartree =     777.863795
siesta:       Eldau   =       0.000000
siesta:       Eso     =       0.000000
siesta:    Ext. field =       0.000000
siesta:   Exch.-corr. =   -1117.158547
siesta:  Ion-electron =   -3450.812582
siesta:       Ion-ion =   -1290.459559
siesta:       Ekinion =       0.000000
siesta:         Total =   -3094.150273
siesta:         Fermi =      -5.704787

siesta: Stress tensor (static) (eV/Ang**3):
siesta:    -0.031080   -0.000182   -0.000022
siesta:    -0.000182   -0.031383    0.000014
siesta:    -0.000022    0.000014   -0.030911

siesta: Constrained stress tensor (static) (eV/Ang**3):
siesta:    -0.031080   -0.000182   -0.000022
siesta:    -0.000182   -0.031383    0.000014
siesta:    -0.000022    0.000014   -0.030911

siesta: Cell volume =        134.245287 Ang**3

siesta: Pressure (static):
siesta:                Solid            Molecule  Units
siesta:           0.00033899          0.00033950  Ry/Bohr**3
siesta:           0.03112469          0.03117182  eV/Ang**3
siesta:          49.86779639         49.94330708  kBar
(Free)E+ p_basis*V_orbitals  =       -3083.515328
(Free)Eharris+ p_basis*V_orbitals  =       -3083.515328
>> End of run:  24-NOV-2020  13:29:35
Job completed
